<PP_INFO>
Generated using Fritz-Haber code                                                
Author: unknown    Generation date: as well                                     
As, fhi98PP : Ham-type, LDA  PZ, l=2 local                                      
    1        The Pseudo was generated with a Scalar-Relativistic Calculation
nl pn  l   occ               Rcut            Rcut US             E pseu
4s  0  0  2.00      0.00000000000      0.00000000000      0.00000000000
4p  0  1  3.00      0.00000000000      0.00000000000      0.00000000000
5s  0  2  0.00      0.00000000000      0.00000000000      0.00000000000
</PP_INFO>


<PP_HEADER>
   0                   Version Number
  As                   Element
   NC                  Norm - Conserving pseudopotential
    F                  Nonlinear Core Correction
SLA  PZ   NOGX NOGC    PZ   Exchange-Correlation functional
    5.00000000000      Z valence
    0.00000000000      Total energy
  0.0000000  0.0000000 Suggested cutoff for wfc and rho
    1                  Max angular momentum component
  531                  Number of points in mesh
    3    2             Number of Wavefunctions, Number of Projectors
 Wavefunctions         nl  l   occ
                       4s  0  2.00
                       4p  1  3.00
                       5s  2  0.00
</PP_HEADER>


<PP_MESH>
  <PP_R>
  1.89393939394E-04  1.94071969697E-04  1.98865547348E-04  2.03777526368E-04
  2.08810831269E-04  2.13968458802E-04  2.19253479734E-04  2.24669040683E-04
  2.30218365988E-04  2.35904759628E-04  2.41731607191E-04  2.47702377889E-04
  2.53820626623E-04  2.60089996100E-04  2.66514219004E-04  2.73097120213E-04
  2.79842619082E-04  2.86754731774E-04  2.93837573649E-04  3.01095361718E-04
  3.08532417152E-04  3.16153167856E-04  3.23962151102E-04  3.31964016234E-04
  3.40163527435E-04  3.48565566563E-04  3.57175136057E-04  3.65997361917E-04
  3.75037496757E-04  3.84300922927E-04  3.93793155723E-04  4.03519846669E-04
  4.13486786882E-04  4.23699910518E-04  4.34165298308E-04  4.44889181176E-04
  4.55877943951E-04  4.67138129167E-04  4.78676440957E-04  4.90499749049E-04
  5.02615092850E-04  5.15029685644E-04  5.27750918879E-04  5.40786366575E-04
  5.54143789830E-04  5.67831141439E-04  5.81856570632E-04  5.96228427927E-04
  6.10955270096E-04  6.26045865268E-04  6.41509198140E-04  6.57354475334E-04
  6.73591130875E-04  6.90228831807E-04  7.07277483953E-04  7.24747237807E-04
  7.42648494580E-04  7.60991912397E-04  7.79788412633E-04  7.99049186425E-04
  8.18785701330E-04  8.39009708152E-04  8.59733247944E-04  8.80968659168E-04
  9.02728585049E-04  9.25025981100E-04  9.47874122833E-04  9.71286613667E-04
  9.95277393025E-04  1.01986074463E-03  1.04505130503E-03  1.07086407226E-03
  1.09731441484E-03  1.12441808089E-03  1.15219120749E-03  1.18065033031E-03
  1.20981239347E-03  1.23969475959E-03  1.27031522015E-03  1.30169200609E-03
  1.33384379864E-03  1.36678974047E-03  1.40054944706E-03  1.43514301840E-03
  1.47059105095E-03  1.50691464991E-03  1.54413544177E-03  1.58227558718E-03
  1.62135779418E-03  1.66140533170E-03  1.70244204339E-03  1.74449236186E-03
  1.78758132320E-03  1.83173458188E-03  1.87697842605E-03  1.92333979318E-03
  1.97084628607E-03  2.01952618934E-03  2.06940848621E-03  2.12052287582E-03
  2.17289979085E-03  2.22657041569E-03  2.28156670496E-03  2.33792140257E-03
  2.39566806121E-03  2.45484106232E-03  2.51547563656E-03  2.57760788479E-03
  2.64127479954E-03  2.70651428709E-03  2.77336518998E-03  2.84186731017E-03
  2.91206143273E-03  2.98398935012E-03  3.05769388707E-03  3.13321892608E-03
  3.21060943356E-03  3.28991148656E-03  3.37117230028E-03  3.45444025610E-03
  3.53976493042E-03  3.62719712421E-03  3.71678889317E-03  3.80859357884E-03
  3.90266584023E-03  3.99906168649E-03  4.09783851014E-03  4.19905512134E-03
  4.30277178284E-03  4.40905024588E-03  4.51795378695E-03  4.62954724549E-03
  4.74389706245E-03  4.86107131989E-03  4.98113978149E-03  5.10417393410E-03
  5.23024703027E-03  5.35943413192E-03  5.49181215498E-03  5.62745991520E-03
  5.76645817511E-03  5.90888969203E-03  6.05483926743E-03  6.20439379733E-03
  6.35764232413E-03  6.51467608953E-03  6.67558858895E-03  6.84047562709E-03
  7.00943537508E-03  7.18256842885E-03  7.35997786904E-03  7.54176932240E-03
  7.72805102467E-03  7.91893388498E-03  8.11453155193E-03  8.31496048127E-03
  8.52034000515E-03  8.73079240328E-03  8.94644297564E-03  9.16742011714E-03
  9.39385539404E-03  9.62588362227E-03  9.86364294774E-03  1.01072749285E-02
  1.03569246193E-02  1.06127406574E-02  1.08748753516E-02  1.11434847728E-02
  1.14187288467E-02  1.17007714492E-02  1.19897805040E-02  1.22859280824E-02
  1.25893905061E-02  1.29003484516E-02  1.32189870583E-02  1.35454960387E-02
  1.38800697908E-02  1.42229075147E-02  1.45742133303E-02  1.49341963995E-02
  1.53030710506E-02  1.56810569056E-02  1.60683790111E-02  1.64652679727E-02
  1.68719600916E-02  1.72886975059E-02  1.77157283343E-02  1.81533068241E-02
  1.86016935027E-02  1.90611553322E-02  1.95319658689E-02  2.00144054259E-02
  2.05087612399E-02  2.10153276425E-02  2.15344062353E-02  2.20663060693E-02
  2.26113438292E-02  2.31698440218E-02  2.37421391691E-02  2.43285700066E-02
  2.49294856858E-02  2.55452439822E-02  2.61762115086E-02  2.68227639328E-02
  2.74852862020E-02  2.81641727712E-02  2.88598278386E-02  2.95726655862E-02
  3.03031104262E-02  3.10515972537E-02  3.18185717059E-02  3.26044904270E-02
  3.34098213406E-02  3.42350439277E-02  3.50806495127E-02  3.59471415557E-02
  3.68350359521E-02  3.77448613401E-02  3.86771594152E-02  3.96324852528E-02
  4.06114076385E-02  4.16145094072E-02  4.26423877896E-02  4.36956547680E-02
  4.47749374407E-02  4.58808783955E-02  4.70141360919E-02  4.81753852533E-02
  4.93653172691E-02  5.05846406057E-02  5.18340812286E-02  5.31143830350E-02
  5.44263082959E-02  5.57706381108E-02  5.71481728722E-02  5.85597327421E-02
  6.00061581408E-02  6.14883102469E-02  6.30070715100E-02  6.45633461763E-02
  6.61580608269E-02  6.77921649293E-02  6.94666314030E-02  7.11824571987E-02
  7.29406638915E-02  7.47422982896E-02  7.65884330574E-02  7.84801673539E-02
  8.04186274875E-02  8.24049675865E-02  8.44403702859E-02  8.65260474319E-02
  8.86632408035E-02  9.08532228514E-02  9.30972974558E-02  9.53968007029E-02
  9.77531016803E-02  1.00167603292E-01  1.02641743093E-01  1.05176994148E-01
  1.07774865903E-01  1.10436905091E-01  1.13164696647E-01  1.15959864654E-01
  1.18824073311E-01  1.21759027921E-01  1.24766475911E-01  1.27848207866E-01
  1.31006058600E-01  1.34241908248E-01  1.37557683381E-01  1.40955358161E-01
  1.44436955508E-01  1.48004548309E-01  1.51660260652E-01  1.55406269090E-01
  1.59244803936E-01  1.63178150594E-01  1.67208650913E-01  1.71338704591E-01
  1.75570770594E-01  1.79907368628E-01  1.84351080633E-01  1.88904552325E-01
  1.93570494767E-01  1.98351685988E-01  2.03250972632E-01  2.08271271656E-01
  2.13415572066E-01  2.18686936696E-01  2.24088504032E-01  2.29623490082E-01
  2.35295190287E-01  2.41106981487E-01  2.47062323930E-01  2.53164763331E-01
  2.59417932985E-01  2.65825555930E-01  2.72391447161E-01  2.79119515906E-01
  2.86013767949E-01  2.93078308017E-01  3.00317342225E-01  3.07735180578E-01
  3.15336239538E-01  3.23125044655E-01  3.31106233258E-01  3.39284557219E-01
  3.47664885783E-01  3.56252208462E-01  3.65051638011E-01  3.74068413469E-01
  3.83307903282E-01  3.92775608493E-01  4.02477166023E-01  4.12418352024E-01
  4.22605085319E-01  4.33043430926E-01  4.43739603670E-01  4.54699971881E-01
  4.65931061186E-01  4.77439558397E-01  4.89232315490E-01  5.01316353682E-01
  5.13698867618E-01  5.26387229649E-01  5.39388994221E-01  5.52711902378E-01
  5.66363886367E-01  5.80353074360E-01  5.94687795297E-01  6.09376583841E-01
  6.24428185462E-01  6.39851561642E-01  6.55655895215E-01  6.71850595827E-01
  6.88445305544E-01  7.05449904591E-01  7.22874517234E-01  7.40729517810E-01
  7.59025536900E-01  7.77773467661E-01  7.96984472312E-01  8.16669988778E-01
  8.36841737501E-01  8.57511728418E-01  8.78692268109E-01  9.00395967132E-01
  9.22635747520E-01  9.45424850484E-01  9.68776844291E-01  9.92705632345E-01
  1.01722546146E+00  1.04235093036E+00  1.06809699834E+00  1.09447899420E+00
  1.12151262536E+00  1.14921398720E+00  1.17759957269E+00  1.20668628213E+00
  1.23649143330E+00  1.26703277170E+00  1.29832848117E+00  1.33039719465E+00
  1.36325800536E+00  1.39693047809E+00  1.43143466090E+00  1.46679109702E+00
  1.50302083712E+00  1.54014545180E+00  1.57818704446E+00  1.61716826445E+00
  1.65711232059E+00  1.69804299490E+00  1.73998465688E+00  1.78296227790E+00
  1.82700144617E+00  1.87212838189E+00  1.91836995292E+00  1.96575369076E+00
  2.01430780692E+00  2.06406120975E+00  2.11504352163E+00  2.16728509662E+00
  2.22081703850E+00  2.27567121935E+00  2.33188029847E+00  2.38947774184E+00
  2.44849784207E+00  2.50897573877E+00  2.57094743951E+00  2.63444984127E+00
  2.69952075235E+00  2.76619891493E+00  2.83452402813E+00  2.90453677163E+00
  2.97627882988E+00  3.04979291698E+00  3.12512280203E+00  3.20231333524E+00
  3.28141047462E+00  3.36246131335E+00  3.44551410779E+00  3.53061830625E+00
  3.61782457841E+00  3.70718484550E+00  3.79875231118E+00  3.89258149327E+00
  3.98872825615E+00  4.08724984408E+00  4.18820491523E+00  4.29165357664E+00
  4.39765741998E+00  4.50627955825E+00  4.61758466334E+00  4.73163900452E+00
  4.84851048794E+00  4.96826869699E+00  5.09098493380E+00  5.21673226167E+00
  5.34558554853E+00  5.47762151158E+00  5.61291876292E+00  5.75155785636E+00
  5.89362133541E+00  6.03919378240E+00  6.18836186882E+00  6.34121440698E+00
  6.49784240284E+00  6.65833911019E+00  6.82280008621E+00  6.99132324834E+00
  7.16400893257E+00  7.34095995321E+00  7.52228166405E+00  7.70808202115E+00
  7.89847164707E+00  8.09356389676E+00  8.29347492501E+00  8.49832375565E+00
  8.70823235242E+00  8.92332569152E+00  9.14373183610E+00  9.36958201246E+00
  9.60101068816E+00  9.83815565216E+00  1.00811580968E+01  1.03301627018E+01
  1.05853177205E+01  1.08467750682E+01  1.11146904124E+01  1.13892232656E+01
  1.16705370802E+01  1.19587993461E+01  1.22541816899E+01  1.25568599777E+01
  1.28670144191E+01  1.31848296753E+01  1.35104949683E+01  1.38442041940E+01
  1.41861560376E+01  1.45365540917E+01  1.48956069778E+01  1.52635284701E+01
  1.56405376233E+01  1.60268589026E+01  1.64227223175E+01  1.68283635588E+01
  1.72440241387E+01  1.76699515349E+01  1.81063993378E+01  1.85536274015E+01
  1.90119019983E+01  1.94814959776E+01  1.99626889283E+01  2.04557673448E+01
  2.09610247982E+01  2.14787621107E+01  2.20092875349E+01  2.25529169370E+01
  2.31099739853E+01  2.36807903428E+01  2.42657058642E+01  2.48650687991E+01
  2.54792359984E+01  2.61085731276E+01  2.67534548838E+01  2.74142652195E+01
  2.80913975704E+01  2.87852550904E+01  2.94962508911E+01  3.02248082881E+01
  3.09713610528E+01  3.17363536708E+01  3.25202416065E+01  3.33234915742E+01
  3.41465818161E+01  3.49900023869E+01  3.58542554459E+01  3.67398555554E+01
  3.76473299876E+01  3.85772190383E+01  3.95300763485E+01  4.05064692344E+01
  4.15069790244E+01  4.25322014063E+01  4.35827467811E+01  4.46592406266E+01
  4.57623238700E+01  4.68926532696E+01  4.80509018054E+01  4.92377590800E+01
  5.04539317293E+01  5.17001438430E+01  5.29771373959E+01  5.42856726896E+01
  5.56265288050E+01  5.70005040665E+01  5.84084165169E+01  5.98511044049E+01
  6.13294266837E+01  6.28442635228E+01  6.43965168318E+01  6.59871107976E+01
  6.76169924343E+01  6.92871321474E+01  7.09985243114E+01  7.27521878619E+01
  7.45491669021E+01  7.63905313246E+01  7.82773774483E+01
  </PP_R>
  <PP_RAB>
  4.62119068628E-06  4.73533409623E-06  4.85229684840E-06  4.97214858056E-06
  5.09496065050E-06  5.22080617857E-06  5.34976009118E-06  5.48189916543E-06
  5.61730207481E-06  5.75604943606E-06  5.89822385713E-06  6.04390998640E-06
  6.19319456307E-06  6.34616646878E-06  6.50291678056E-06  6.66353882504E-06
  6.82812823401E-06  6.99678300139E-06  7.16960354153E-06  7.34669274900E-06
  7.52815605990E-06  7.71410151458E-06  7.90463982199E-06  8.09988442560E-06
  8.29995157091E-06  8.50496037471E-06  8.71503289597E-06  8.93029420850E-06
  9.15087247545E-06  9.37689902559E-06  9.60850843152E-06  9.84583858978E-06
  1.00890308029E-05  1.03382298638E-05  1.05935841414E-05  1.08552456697E-05
  1.11233702378E-05  1.13981174826E-05  1.16796509844E-05  1.19681383638E-05
  1.22637513813E-05  1.25666660405E-05  1.28770626917E-05  1.31951261401E-05
  1.35210457558E-05  1.38550155860E-05  1.41972344710E-05  1.45479061624E-05
  1.49072394446E-05  1.52754482589E-05  1.56527518309E-05  1.60393748011E-05
  1.64355473587E-05  1.68415053784E-05  1.72574905613E-05  1.76837505782E-05
  1.81205392174E-05  1.85681165361E-05  1.90267490145E-05  1.94967097152E-05
  1.99782784452E-05  2.04717419228E-05  2.09773939483E-05  2.14955355788E-05
  2.20264753076E-05  2.25705292477E-05  2.31280213201E-05  2.36992834467E-05
  2.42846557478E-05  2.48844867448E-05  2.54991335674E-05  2.61289621665E-05
  2.67743475320E-05  2.74356739161E-05  2.81133350618E-05  2.88077344378E-05
  2.95192854784E-05  3.02484118297E-05  3.09955476019E-05  3.17611376277E-05
  3.25456377271E-05  3.33495149790E-05  3.41732479990E-05  3.50173272245E-05
  3.58822552070E-05  3.67685469106E-05  3.76767300193E-05  3.86073452508E-05
  3.95609466785E-05  4.05381020614E-05  4.15393931823E-05  4.25654161939E-05
  4.36167819739E-05  4.46941164887E-05  4.57980611659E-05  4.69292732767E-05
  4.80884263267E-05  4.92762104569E-05  5.04933328552E-05  5.17405181768E-05
  5.30185089757E-05  5.43280661474E-05  5.56699693813E-05  5.70450176250E-05
  5.84540295603E-05  5.98978440905E-05  6.13773208395E-05  6.28933406642E-05
  6.44468061786E-05  6.60386422913E-05  6.76697967558E-05  6.93412407357E-05
  7.10539693819E-05  7.28090024256E-05  7.46073847855E-05  7.64501871897E-05
  7.83385068133E-05  8.02734679316E-05  8.22562225895E-05  8.42879512875E-05
  8.63698636843E-05  8.85031993173E-05  9.06892283404E-05  9.29292522804E-05
  9.52246048118E-05  9.75766525506E-05  9.99867958686E-05  1.02456469727E-04
  1.04987144529E-04  1.07580326999E-04  1.10237561076E-04  1.12960428834E-04
  1.15750551426E-04  1.18609590047E-04  1.21539246921E-04  1.24541266320E-04
  1.27617435598E-04  1.30769586257E-04  1.33999595038E-04  1.37309385035E-04
  1.40700926845E-04  1.44176239738E-04  1.47737392860E-04  1.51386506464E-04
  1.55125753173E-04  1.58957359277E-04  1.62883606051E-04  1.66906831120E-04
  1.71029429849E-04  1.75253856766E-04  1.79582627028E-04  1.84018317916E-04
  1.88563570368E-04  1.93221090556E-04  1.97993651493E-04  2.02884094685E-04
  2.07895331824E-04  2.13030346520E-04  2.18292196079E-04  2.23684013322E-04
  2.29209008451E-04  2.34870470960E-04  2.40671771593E-04  2.46616364351E-04
  2.52707788550E-04  2.58949670928E-04  2.65345727799E-04  2.71899767276E-04
  2.78615691528E-04  2.85497499109E-04  2.92549287337E-04  2.99775254734E-04
  3.07179703526E-04  3.14767042203E-04  3.22541788145E-04  3.30508570312E-04
  3.38672131999E-04  3.47037333659E-04  3.55609155801E-04  3.64392701949E-04
  3.73393201687E-04  3.82616013769E-04  3.92066629309E-04  4.01750675053E-04
  4.11673916727E-04  4.21842262470E-04  4.32261766353E-04  4.42938631982E-04
  4.53879216192E-04  4.65090032832E-04  4.76577756643E-04  4.88349227232E-04
  5.00411453144E-04  5.12771616037E-04  5.25437074953E-04  5.38415370705E-04
  5.51714230361E-04  5.65341571851E-04  5.79305508676E-04  5.93614354740E-04
  6.08276629302E-04  6.23301062046E-04  6.38696598278E-04  6.54472404256E-04
  6.70637872641E-04  6.87202628095E-04  7.04176533009E-04  7.21569693374E-04
  7.39392464801E-04  7.57655458681E-04  7.76369548511E-04  7.95545876359E-04
  8.15195859505E-04  8.35331197235E-04  8.55963877806E-04  8.77106185588E-04
  8.98770708372E-04  9.20970344869E-04  9.43718312387E-04  9.67028154703E-04
  9.90913750124E-04  1.01538931975E-03  1.04046943595E-03  1.06616903102E-03
  1.09250340608E-03  1.11948824021E-03  1.14713959975E-03  1.17547394786E-03
  1.20450815437E-03  1.23425950579E-03  1.26474571558E-03  1.29598493475E-03
  1.32799576264E-03  1.36079725798E-03  1.39440895025E-03  1.42885085132E-03
  1.46414346735E-03  1.50030781100E-03  1.53736541393E-03  1.57533833965E-03
  1.61424919664E-03  1.65412115180E-03  1.69497794425E-03  1.73684389947E-03
  1.77974394379E-03  1.82370361920E-03  1.86874909859E-03  1.91490720133E-03
  1.96220540920E-03  2.01067188281E-03  2.06033547831E-03  2.11122576463E-03
  2.16337304101E-03  2.21680835513E-03  2.27156352150E-03  2.32767114048E-03
  2.38516461765E-03  2.44407818370E-03  2.50444691484E-03  2.56630675364E-03
  2.62969453045E-03  2.69464798536E-03  2.76120579059E-03  2.82940757362E-03
  2.89929394069E-03  2.97090650103E-03  3.04428789160E-03  3.11948180252E-03
  3.19653300305E-03  3.27548736822E-03  3.35639190622E-03  3.43929478630E-03
  3.52424536752E-03  3.61129422810E-03  3.70049319553E-03  3.79189537746E-03
  3.88555519329E-03  3.98152840656E-03  4.07987215820E-03  4.18064500051E-03
  4.28390693202E-03  4.38971943324E-03  4.49814550324E-03  4.60924969717E-03
  4.72309816469E-03  4.83975868936E-03  4.95930072899E-03  5.08179545700E-03
  5.20731580478E-03  5.33593650516E-03  5.46773413684E-03  5.60278717002E-03
  5.74117601312E-03  5.88298306064E-03  6.02829274224E-03  6.17719157297E-03
  6.32976820483E-03  6.48611347949E-03  6.64632048243E-03  6.81048459834E-03
  6.97870356792E-03  7.15107754605E-03  7.32770916144E-03  7.50870357773E-03
  7.69416855610E-03  7.88421451943E-03  8.07895461806E-03  8.27850479713E-03
  8.48298386562E-03  8.69251356710E-03  8.90721865221E-03  9.12722695291E-03
  9.35266945865E-03  9.58368039428E-03  9.82039730002E-03  1.00629611133E-02
  1.03115162528E-02  1.05662107043E-02  1.08271961087E-02  1.10946278526E-02
  1.13686651605E-02  1.16494711900E-02  1.19372131284E-02  1.22320622926E-02
  1.25341942313E-02  1.28437888288E-02  1.31610304129E-02  1.34861078640E-02
  1.38192147283E-02  1.41605493321E-02  1.45103149006E-02  1.48687196786E-02
  1.52359770547E-02  1.56123056879E-02  1.59979296384E-02  1.63930785005E-02
  1.67979875395E-02  1.72128978317E-02  1.76380564081E-02  1.80737164014E-02
  1.85201371965E-02  1.89775845853E-02  1.94463309245E-02  1.99266552984E-02
  2.04188436842E-02  2.09231891232E-02  2.14399918946E-02  2.19695596944E-02
  2.25122078188E-02  2.30682593520E-02  2.36380453580E-02  2.42219050783E-02
  2.48201861337E-02  2.54332447312E-02  2.60614458761E-02  2.67051635892E-02
  2.73647811299E-02  2.80406912238E-02  2.87332962970E-02  2.94430087156E-02
  3.01702510308E-02  3.09154562313E-02  3.16790680002E-02  3.24615409798E-02
  3.32633410420E-02  3.40849455658E-02  3.49268437212E-02  3.57895367611E-02
  3.66735383191E-02  3.75793747156E-02  3.85075852711E-02  3.94587226273E-02
  4.04333530762E-02  4.14320568972E-02  4.24554287025E-02  4.35040777915E-02
  4.45786285129E-02  4.56797206372E-02  4.68080097369E-02  4.79641675774E-02
  4.91488825166E-02  5.03628599148E-02  5.16068225547E-02  5.28815110718E-02
  5.41876843952E-02  5.55261201998E-02  5.68976153687E-02  5.83029864683E-02
  5.97430702341E-02  6.12187240689E-02  6.27308265534E-02  6.42802779693E-02
  6.58680008351E-02  6.74949404557E-02  6.91620654850E-02  7.08703685025E-02
  7.26208666045E-02  7.44146020096E-02  7.62526426792E-02  7.81360829534E-02
  8.00660442024E-02  8.20436754942E-02  8.40701542789E-02  8.61466870896E-02
  8.82745102607E-02  9.04548906641E-02  9.26891264635E-02  9.49785478872E-02
  9.73245180200E-02  9.97284336151E-02  1.02191725925E-01  1.04715861556E-01
  1.07302343336E-01  1.09952711217E-01  1.12668543184E-01  1.15451456200E-01
  1.18303107168E-01  1.21225193915E-01  1.24219456205E-01  1.27287676773E-01
  1.30431682390E-01  1.33653344945E-01  1.36954582565E-01  1.40337360754E-01
  1.43803693565E-01  1.47355644796E-01  1.50995329222E-01  1.54724913854E-01
  1.58546619226E-01  1.62462720721E-01  1.66475549923E-01  1.70587496006E-01
  1.74801007158E-01  1.79118592034E-01  1.83542821258E-01  1.88076328943E-01
  1.92721814268E-01  1.97482043080E-01  2.02359849544E-01  2.07358137828E-01
  2.12479883832E-01  2.17728136963E-01  2.23106021946E-01  2.28616740688E-01
  2.34263574183E-01  2.40049884465E-01  2.45979116611E-01  2.52054800792E-01
  2.58280554371E-01  2.64660084064E-01  2.71197188141E-01  2.77895758688E-01
  2.84759783927E-01  2.91793350590E-01  2.99000646350E-01  3.06385962315E-01
  3.13953695584E-01  3.21708351865E-01  3.29654548156E-01  3.37797015495E-01
  3.46140601778E-01  3.54690274642E-01  3.63451124426E-01  3.72428367199E-01
  3.81627347869E-01  3.91053543361E-01  4.00712565882E-01  4.10610166259E-01
  4.20752237366E-01  4.31144817629E-01  4.41794094624E-01  4.52706408761E-01
  4.63888257058E-01  4.75346297007E-01  4.87087350543E-01  4.99118408102E-01
  5.11446632782E-01  5.24079364612E-01  5.37024124917E-01  5.50288620803E-01
  5.63880749737E-01  5.77808604255E-01  5.92080476780E-01  6.06704864557E-01
  6.21690474711E-01  6.37046229437E-01  6.52781271304E-01  6.68904968705E-01
  6.85426921432E-01  7.02356966391E-01  7.19705183461E-01  7.37481901493E-01
  7.55697704460E-01  7.74363437760E-01  7.93490214672E-01  8.13089422975E-01
  8.33172731722E-01  8.53752098196E-01  8.74839775021E-01  8.96448317464E-01
  9.18590590906E-01  9.41279778501E-01  9.64529389030E-01  9.88353264939E-01
  1.01276559058E+00  1.03778090067E+00  1.06341408892E+00  1.08968041691E+00
  1.11659552321E+00  1.14417543263E+00  1.17243656582E+00  1.20139574900E+00
  1.23107022400E+00  1.26147765853E+00  1.29263615669E+00  1.32456426977E+00
  1.35728100723E+00  1.39080584811E+00  1.42515875256E+00  1.46036017374E+00
  1.49643107003E+00  1.53339291746E+00  1.57126772253E+00  1.61007803527E+00
  1.64984696274E+00  1.69059818272E+00  1.73235595784E+00  1.77514515000E+00
  1.81899123520E+00  1.86392031871E+00  1.90995915058E+00
  </PP_RAB>
</PP_MESH>


<PP_LOCAL>
 -5.66663995446E+00 -5.66663996559E+00 -5.66663997711E+00 -5.66663998908E+00
 -5.66664000563E+00 -5.66664002268E+00 -5.66664004015E+00 -5.66664005812E+00
 -5.66664007655E+00 -5.66664009551E+00 -5.66664011500E+00 -5.66664013504E+00
 -5.66664015563E+00 -5.66664017684E+00 -5.66664019863E+00 -5.66664022106E+00
 -5.66664024416E+00 -5.66664026794E+00 -5.66664029242E+00 -5.66664031764E+00
 -5.66664034363E+00 -5.66664037039E+00 -5.66664039798E+00 -5.66664042640E+00
 -5.66664045572E+00 -5.66664048595E+00 -5.66664051711E+00 -5.66664054926E+00
 -5.66664058243E+00 -5.66664061663E+00 -5.66664065194E+00 -5.66664068836E+00
 -5.66664072598E+00 -5.66664076479E+00 -5.66664080486E+00 -5.66664084626E+00
 -5.66664088898E+00 -5.66664093312E+00 -5.66664097871E+00 -5.66664102581E+00
 -5.66664107446E+00 -5.66664112472E+00 -5.66664117667E+00 -5.66664123036E+00
 -5.66664128585E+00 -5.66664134321E+00 -5.66664140249E+00 -5.66664146378E+00
 -5.66664152715E+00 -5.66664159268E+00 -5.66664166043E+00 -5.66664173050E+00
 -5.66664180297E+00 -5.66664187792E+00 -5.66664195545E+00 -5.66664203565E+00
 -5.66664211862E+00 -5.66664220444E+00 -5.66664229325E+00 -5.66664238515E+00
 -5.66664248022E+00 -5.66664257862E+00 -5.66664268044E+00 -5.66664278583E+00
 -5.66664289489E+00 -5.66664300778E+00 -5.66664312464E+00 -5.66664324560E+00
 -5.66664337081E+00 -5.66664350044E+00 -5.66664363464E+00 -5.66664377358E+00
 -5.66664391744E+00 -5.66664406640E+00 -5.66664422063E+00 -5.66664438035E+00
 -5.66664454574E+00 -5.66664471702E+00 -5.66664489440E+00 -5.66664507811E+00
 -5.66664526838E+00 -5.66664546545E+00 -5.66664566958E+00 -5.66664588103E+00
 -5.66664610006E+00 -5.66664632695E+00 -5.66664656201E+00 -5.66664680552E+00
 -5.66664705781E+00 -5.66664731919E+00 -5.66664759001E+00 -5.66664787062E+00
 -5.66664816138E+00 -5.66664846268E+00 -5.66664877490E+00 -5.66664909845E+00
 -5.66664943376E+00 -5.66664978127E+00 -5.66665014144E+00 -5.66665051473E+00
 -5.66665090166E+00 -5.66665130272E+00 -5.66665171846E+00 -5.66665214943E+00
 -5.66665259621E+00 -5.66665305939E+00 -5.66665353960E+00 -5.66665403749E+00
 -5.66665455373E+00 -5.66665508903E+00 -5.66665564411E+00 -5.66665621973E+00
 -5.66665681668E+00 -5.66665743579E+00 -5.66665807791E+00 -5.66665874393E+00
 -5.66665943478E+00 -5.66666015141E+00 -5.66666089484E+00 -5.66666166612E+00
 -5.66666246632E+00 -5.66666329659E+00 -5.66666415812E+00 -5.66666505212E+00
 -5.66666597989E+00 -5.66666694277E+00 -5.66666794214E+00 -5.66666897947E+00
 -5.66667005628E+00 -5.66667117413E+00 -5.66667233470E+00 -5.66667353968E+00
 -5.66667479089E+00 -5.66667609021E+00 -5.66667743957E+00 -5.66667884104E+00
 -5.66668029673E+00 -5.66668180888E+00 -5.66668337982E+00 -5.66668501198E+00
 -5.66668670789E+00 -5.66668847020E+00 -5.66669030170E+00 -5.66669220527E+00
 -5.66669418396E+00 -5.66669624092E+00 -5.66669837948E+00 -5.66670060309E+00
 -5.66670291538E+00 -5.66670532016E+00 -5.66670782138E+00 -5.66671042320E+00
 -5.66671312998E+00 -5.66671594626E+00 -5.66671887683E+00 -5.66672192666E+00
 -5.66672510100E+00 -5.66672840533E+00 -5.66673184538E+00 -5.66673542718E+00
 -5.66673915704E+00 -5.66674304157E+00 -5.66674708770E+00 -5.66675130270E+00
 -5.66675569419E+00 -5.66676027017E+00 -5.66676503902E+00 -5.66677000955E+00
 -5.66677519098E+00 -5.66678059301E+00 -5.66678622579E+00 -5.66679210001E+00
 -5.66679822686E+00 -5.66680461810E+00 -5.66681128608E+00 -5.66681824376E+00
 -5.66682550477E+00 -5.66683308340E+00 -5.66684099467E+00 -5.66684925436E+00
 -5.66685787905E+00 -5.66686688614E+00 -5.66687629394E+00 -5.66688612167E+00
 -5.66689638954E+00 -5.66690711877E+00 -5.66691833168E+00 -5.66693005171E+00
 -5.66694230352E+00 -5.66695511301E+00 -5.66696850741E+00 -5.66698251535E+00
 -5.66699716691E+00 -5.66701249372E+00 -5.66702852903E+00 -5.66704530779E+00
 -5.66706286675E+00 -5.66708124451E+00 -5.66710048167E+00 -5.66712062093E+00
 -5.66714170711E+00 -5.66716378739E+00 -5.66718691130E+00 -5.66721113093E+00
 -5.66723650102E+00 -5.66726307908E+00 -5.66729092554E+00 -5.66732010392E+00
 -5.66735068092E+00 -5.66738272664E+00 -5.66741631468E+00 -5.66745152238E+00
 -5.66748843092E+00 -5.66752712558E+00 -5.66756769587E+00 -5.66761023575E+00
 -5.66765484386E+00 -5.66770162370E+00 -5.66775068390E+00 -5.66780213840E+00
 -5.66785610672E+00 -5.66791271423E+00 -5.66797209238E+00 -5.66803437901E+00
 -5.66809971858E+00 -5.66816826254E+00 -5.66824016956E+00 -5.66831560592E+00
 -5.66839474577E+00 -5.66847777153E+00 -5.66856487422E+00 -5.66865625382E+00
 -5.66875211966E+00 -5.66885269079E+00 -5.66895819639E+00 -5.66906887615E+00
 -5.66918498069E+00 -5.66930677197E+00 -5.66943452370E+00 -5.66956852171E+00
 -5.66970906440E+00 -5.66985646313E+00 -5.67001104256E+00 -5.67017314109E+00
 -5.67034311119E+00 -5.67052131979E+00 -5.67070814859E+00 -5.67090399445E+00
 -5.67110926975E+00 -5.67132440265E+00 -5.67154983755E+00 -5.67178603535E+00
 -5.67203347387E+00 -5.67229264819E+00 -5.67256407103E+00 -5.67284827316E+00
 -5.67314580374E+00 -5.67345723078E+00 -5.67378314151E+00 -5.67412414275E+00
 -5.67448086132E+00 -5.67485394436E+00 -5.67524405965E+00 -5.67565189587E+00
 -5.67607816282E+00 -5.67652359146E+00 -5.67698893398E+00 -5.67747496358E+00
 -5.67798247424E+00 -5.67851228018E+00 -5.67906521516E+00 -5.67964213146E+00
 -5.68024389866E+00 -5.68087140198E+00 -5.68152554031E+00 -5.68220722384E+00
 -5.68291737123E+00 -5.68365690635E+00 -5.68442675452E+00 -5.68522783833E+00
 -5.68606107290E+00 -5.68692736084E+00 -5.68782758668E+00 -5.68876261110E+00
 -5.68973326482E+00 -5.69074034249E+00 -5.69178459643E+00 -5.69286673066E+00
 -5.69398739507E+00 -5.69514717996E+00 -5.69634661097E+00 -5.69758614430E+00
 -5.69886616198E+00 -5.70018696697E+00 -5.70154877736E+00 -5.70295171897E+00
 -5.70439581555E+00 -5.70588097531E+00 -5.70740697328E+00 -5.70897342843E+00
 -5.71057977566E+00 -5.71222523305E+00 -5.71390876544E+00 -5.71562904628E+00
 -5.71738442007E+00 -5.71917286776E+00 -5.72099197752E+00 -5.72283892272E+00
 -5.72471044808E+00 -5.72660286453E+00 -5.72851205251E+00 -5.73043347268E+00
 -5.73236218320E+00 -5.73429286197E+00 -5.73621983278E+00 -5.73813709377E+00
 -5.74003834725E+00 -5.74191702936E+00 -5.74376633879E+00 -5.74557926312E+00
 -5.74734860176E+00 -5.74906698439E+00 -5.75072688360E+00 -5.75232062055E+00
 -5.75384036254E+00 -5.75527811117E+00 -5.75662568014E+00 -5.75787466153E+00
 -5.75901637977E+00 -5.76004183256E+00 -5.76094161822E+00 -5.76170584933E+00
 -5.76232405264E+00 -5.76278505571E+00 -5.76307686112E+00 -5.76318650946E+00
 -5.76309993265E+00 -5.76280179994E+00 -5.76227535898E+00 -5.76150227510E+00
 -5.76046247226E+00 -5.75913397948E+00 -5.75749278685E+00 -5.75551271516E+00
 -5.75316530326E+00 -5.75041971672E+00 -5.74724268037E+00 -5.74359843607E+00
 -5.73944872505E+00 -5.73475279146E+00 -5.72946740048E+00 -5.72354686008E+00
 -5.71694303160E+00 -5.70960530935E+00 -5.70148054625E+00 -5.69251289993E+00
 -5.68264357435E+00 -5.67181043550E+00 -5.65994748773E+00 -5.64698420761E+00
 -5.63284475188E+00 -5.61746047568E+00 -5.60073278609E+00 -5.58256082741E+00
 -5.56283819925E+00 -5.54144867221E+00 -5.51826554702E+00 -5.49315121924E+00
 -5.46595698901E+00 -5.43652314986E+00 -5.40467939255E+00 -5.37024556603E+00
 -5.33303284758E+00 -5.29284538735E+00 -5.24948250599E+00 -5.20274153571E+00
 -5.15242140314E+00 -5.09832705471E+00 -5.04027481891E+00 -4.97809878423E+00
 -4.91165824186E+00 -4.84084619728E+00 -4.76559889022E+00 -4.68590617394E+00
 -4.60182248993E+00 -4.51347802962E+00 -4.42108950074E+00 -4.32496971648E+00
 -4.22553501094E+00 -4.12330926434E+00 -4.01892321775E+00 -3.91310748912E+00
 -3.80667804646E+00 -3.70051299218E+00 -3.59552023508E+00 -3.49259661260E+00
 -3.39258038041E+00 -3.29620056817E+00 -3.20402825550E+00 -3.11643597335E+00
 -3.03357174831E+00 -2.95535339959E+00 -2.88148639333E+00 -2.81150502303E+00
 -2.74483249175E+00 -2.68085154899E+00 -2.61897475232E+00 -2.55870307611E+00
 -2.49966385411E+00 -2.44162354445E+00 -2.38447641871E+00 -2.32821541351E+00
 -2.27289452411E+00 -2.21859240040E+00 -2.16538438511E+00 -2.11332624428E+00
 -2.06244887351E+00 -2.01276065505E+00 -1.96425342008E+00 -1.91690877995E+00