<PP_INFO>
Generated using Fritz-Haber code                                                
Author: unknown    Generation date: as well                                     
Ga, fhi98PP : Ham-type, LDA  PZ, l=0 local                                      
    1        The Pseudo was generated with a Scalar-Relativistic Calculation
nl pn  l   occ               Rcut            Rcut US             E pseu
4s  0  0  2.00      0.00000000000      0.00000000000      0.00000000000
4p  0  1  1.00      0.00000000000      0.00000000000      0.00000000000
5s  0  2  0.00      0.00000000000      0.00000000000      0.00000000000
</PP_INFO>


<PP_HEADER>
   0                   Version Number
  Ga                   Element
   NC                  Norm - Conserving pseudopotential
    T                  Nonlinear Core Correction
SLA  PZ   NOGX NOGC    PZ   Exchange-Correlation functional
    3.00000000000      Z valence
    0.00000000000      Total energy
  0.0000000  0.0000000 Suggested cutoff for wfc and rho
    2                  Max angular momentum component
  529                  Number of points in mesh
    3    2             Number of Wavefunctions, Number of Projectors
 Wavefunctions         nl  l   occ
                       4s  0  2.00
                       4p  1  1.00
                       5s  2  0.00
</PP_HEADER>


<PP_MESH>
  <PP_R>
  2.01612903226E-04  2.06592741935E-04  2.11695582661E-04  2.16924463553E-04
  2.22282497803E-04  2.27772875499E-04  2.33398865523E-04  2.39163817502E-04
  2.45071163794E-04  2.51124421540E-04  2.57327194752E-04  2.63683176462E-04
  2.70196150921E-04  2.76869995849E-04  2.83708684746E-04  2.90716289259E-04
  2.97896981604E-04  3.05255037050E-04  3.12794836465E-04  3.20520868925E-04
  3.28437734388E-04  3.36550146427E-04  3.44862935044E-04  3.53381049539E-04
  3.62109561463E-04  3.71053667631E-04  3.80218693222E-04  3.89610094944E-04
  3.99233464289E-04  4.09094530857E-04  4.19199165770E-04  4.29553385164E-04
  4.40163353778E-04  4.51035388616E-04  4.62175962715E-04  4.73591708994E-04
  4.85289424206E-04  4.97276072984E-04  5.09558791987E-04  5.22144894149E-04
  5.35041873034E-04  5.48257407298E-04  5.61799365258E-04  5.75675809580E-04
  5.89895002077E-04  6.04465408628E-04  6.19395704221E-04  6.34694778115E-04
  6.50371739135E-04  6.66435921092E-04  6.82896888343E-04  6.99764441485E-04
  7.17048623189E-04  7.34759724182E-04  7.52908289369E-04  7.71505124117E-04
  7.90561300682E-04  8.10088164809E-04  8.30097342480E-04  8.50600746839E-04
  8.71610585286E-04  8.93139366743E-04  9.15199909101E-04  9.37805346856E-04
  9.60969138924E-04  9.84705076655E-04  1.00902729205E-03  1.03395026616E-03
  1.05948883774E-03  1.08565821203E-03  1.11247396987E-03  1.13995207692E-03
  1.16810889322E-03  1.19696118288E-03  1.22652612410E-03  1.25682131937E-03
  1.28786480595E-03  1.31967506666E-03  1.35227104081E-03  1.38567213552E-03
  1.41989823726E-03  1.45496972372E-03  1.49090747590E-03  1.52773289055E-03
  1.56546789295E-03  1.60413494991E-03  1.64375708317E-03  1.68435788312E-03
  1.72596152284E-03  1.76859277245E-03  1.81227701393E-03  1.85704025617E-03
  1.90290915050E-03  1.94991100652E-03  1.99807380838E-03  2.04742623145E-03
  2.09799765936E-03  2.14981820155E-03  2.20291871113E-03  2.25733080329E-03
  2.31308687414E-03  2.37022011993E-03  2.42876455689E-03  2.48875504144E-03
  2.55022729097E-03  2.61321790505E-03  2.67776438731E-03  2.74390516768E-03
  2.81167962532E-03  2.88112811206E-03  2.95229197643E-03  3.02521358825E-03
  3.09993636388E-03  3.17650479207E-03  3.25496446043E-03  3.33536208260E-03
  3.41774552604E-03  3.50216384054E-03  3.58866728740E-03  3.67730736940E-03
  3.76813686142E-03  3.86120984190E-03  3.95658172499E-03  4.05430929360E-03
  4.15445073315E-03  4.25706566626E-03  4.36221518822E-03  4.46996190337E-03
  4.58036996238E-03  4.69350510045E-03  4.80943467643E-03  4.92822771294E-03
  5.04995493745E-03  5.17468882440E-03  5.30250363837E-03  5.43347547823E-03
  5.56768232255E-03  5.70520407591E-03  5.84612261659E-03  5.99052184522E-03
  6.13848773479E-03  6.29010838184E-03  6.44547405888E-03  6.60467726813E-03
  6.76781279665E-03  6.93497777273E-03  7.10627172372E-03  7.28179663529E-03
  7.46165701218E-03  7.64595994038E-03  7.83481515091E-03  8.02833508514E-03
  8.22663496174E-03  8.42983284530E-03  8.63804971658E-03  8.85140954458E-03
  9.07003936033E-03  9.29406933253E-03  9.52363284504E-03  9.75886657631E-03
  9.99991058075E-03  1.02469083721E-02  1.05000070089E-02  1.07593571820E-02
  1.10251133044E-02  1.12974336030E-02  1.15764802130E-02  1.18624192743E-02
  1.21554210303E-02  1.24556599298E-02  1.27633147301E-02  1.30785686039E-02
  1.34016092484E-02  1.37326289968E-02  1.40718249331E-02  1.44193990089E-02
  1.47755581644E-02  1.51405144511E-02  1.55144851580E-02  1.58976929414E-02
  1.62903659571E-02  1.66927379962E-02  1.71050486247E-02  1.75275433258E-02
  1.79604736459E-02  1.84040973450E-02  1.88586785494E-02  1.93244879096E-02
  1.98018027609E-02  2.02909072891E-02  2.07920926992E-02  2.13056573888E-02
  2.18319071263E-02  2.23711552324E-02  2.29237227666E-02  2.34899387189E-02
  2.40701402053E-02  2.46646726684E-02  2.52738900833E-02  2.58981551683E-02
  2.65378396010E-02  2.71933242391E-02  2.78649993478E-02  2.85532648317E-02
  2.92585304731E-02  2.99812161758E-02  3.07217522153E-02  3.14805794950E-02
  3.22581498085E-02  3.30549261088E-02  3.38713827837E-02  3.47080059385E-02
  3.55652936851E-02  3.64437564392E-02  3.73439172232E-02  3.82663119786E-02
  3.92114898845E-02  4.01800136846E-02  4.11724600227E-02  4.21894197852E-02
  4.32314984539E-02  4.42993164657E-02  4.53935095824E-02  4.65147292691E-02
  4.76636430821E-02  4.88409350662E-02  5.00473061623E-02  5.12834746245E-02
  5.25501764478E-02  5.38481658060E-02  5.51782155014E-02  5.65411174243E-02
  5.79376830247E-02  5.93687437954E-02  6.08351517671E-02  6.23377800158E-02
  6.38775231822E-02  6.54552980048E-02  6.70720438655E-02  6.87287233490E-02
  7.04263228157E-02  7.21658529893E-02  7.39483495581E-02  7.57748737922E-02
  7.76465131748E-02  7.95643820503E-02  8.15296222869E-02  8.35434039574E-02
  8.56069260351E-02  8.77214171082E-02  8.98881361108E-02  9.21083730727E-02
  9.43834498876E-02  9.67147210998E-02  9.91035747110E-02  1.01551433006E-01
  1.04059753402E-01  1.06630029311E-01  1.09263791035E-01  1.11962606673E-01
  1.14728083058E-01  1.17561866710E-01  1.20465644817E-01  1.23441146244E-01
  1.26490142556E-01  1.29614449078E-01  1.32815925970E-01  1.36096479341E-01
  1.39458062381E-01  1.42902676522E-01  1.46432372632E-01  1.50049252236E-01
  1.53755468766E-01  1.57553228845E-01  1.61444793597E-01  1.65432479999E-01
  1.69518662255E-01  1.73705773213E-01  1.77996305811E-01  1.82392814565E-01
  1.86897917084E-01  1.91514295636E-01  1.96244698738E-01  2.01091942797E-01
  2.06058913784E-01  2.11148568955E-01  2.16363938608E-01  2.21708127892E-01
  2.27184318651E-01  2.32795771321E-01  2.38545826873E-01  2.44437908797E-01
  2.50475525144E-01  2.56662270615E-01  2.63001828699E-01  2.69497973868E-01
  2.76154573823E-01  2.82975591796E-01  2.89965088913E-01  2.97127226610E-01
  3.04466269107E-01  3.11986585954E-01  3.19692654627E-01  3.27589063196E-01
  3.35680513057E-01  3.43971821730E-01  3.52467925726E-01  3.61173883492E-01
  3.70094878414E-01  3.79236221911E-01  3.88603356592E-01  3.98201859500E-01
  4.08037445429E-01  4.18115970332E-01  4.28443434799E-01  4.39025987638E-01
  4.49869929533E-01  4.60981716792E-01  4.72367965197E-01  4.84035453938E-01
  4.95991129650E-01  5.08242110552E-01  5.20795690683E-01  5.33659344243E-01
  5.46840730045E-01  5.60347696078E-01  5.74188284171E-01  5.88370734790E-01
  6.02903491939E-01  6.17795208190E-01  6.33054749832E-01  6.48691202153E-01
  6.64713874846E-01  6.81132307555E-01  6.97956275551E-01  7.15195795558E-01
  7.32861131708E-01  7.50962801661E-01  7.69511582862E-01  7.88518518959E-01
  8.07994926377E-01  8.27952401059E-01  8.48402825365E-01  8.69358375151E-01
  8.90831527018E-01  9.12835065735E-01  9.35382091858E-01  9.58486029527E-01
  9.82160634457E-01  1.00642000213E+00  1.03127857618E+00  1.05675115701E+00
  1.08285291059E+00  1.10959937748E+00  1.13700648211E+00  1.16509054221E+00
  1.19386827861E+00  1.22335682509E+00  1.25357373867E+00  1.28453701001E+00
  1.31626507416E+00  1.34877682149E+00  1.38209160898E+00  1.41622927172E+00
  1.45121013474E+00  1.48705502506E+00  1.52378528418E+00  1.56142278070E+00
  1.59998992339E+00  1.63950967449E+00  1.68000556345E+00  1.72150170087E+00
  1.76402279288E+00  1.80759415587E+00  1.85224173152E+00  1.89799210228E+00
  1.94487250721E+00  1.99291085814E+00  2.04213575634E+00  2.09257650952E+00
  2.14426314930E+00  2.19722644909E+00  2.25149794238E+00  2.30710994156E+00
  2.36409555712E+00  2.42248871738E+00  2.48232418870E+00  2.54363759616E+00
  2.60646544478E+00  2.67084514127E+00  2.73681501626E+00  2.80441434716E+00
  2.87368338153E+00  2.94466336106E+00  3.01739654607E+00  3.09192624076E+00
  3.16829681891E+00  3.24655375034E+00  3.32674362797E+00  3.40891419558E+00
  3.49311437621E+00  3.57939430130E+00  3.66780534055E+00  3.75840013246E+00
  3.85123261573E+00  3.94635806134E+00  4.04383310545E+00  4.14371578316E+00
  4.24606556300E+00  4.35094338241E+00  4.45841168395E+00  4.56853445255E+00
  4.68137725353E+00  4.79700727169E+00  4.91549335130E+00  5.03690603707E+00
  5.16131761619E+00  5.28880216131E+00  5.41943557469E+00  5.55329563339E+00
  5.69046203553E+00  5.83101644781E+00  5.97504255407E+00  6.12262610516E+00
  6.27385496996E+00  6.42881918771E+00  6.58761102165E+00  6.75032501389E+00
  6.91705804173E+00  7.08790937536E+00  7.26298073693E+00  7.44237636113E+00
  7.62620305725E+00  7.81457027277E+00  8.00759015850E+00  8.20537763542E+00
  8.40805046301E+00  8.61572930945E+00  8.82853782339E+00  9.04660270763E+00
  9.27005379451E+00  9.49902412323E+00  9.73365001908E+00  9.97407117455E+00
  1.02204307326E+01  1.04728753717E+01  1.07315553933E+01  1.09966248116E+01
  1.12682414444E+01  1.15465670081E+01  1.18317672132E+01  1.21240118633E+01
  1.24234749564E+01  1.27303347878E+01  1.30447740570E+01  1.33669799763E+01
  1.36971443817E+01  1.40354638479E+01  1.43821398049E+01  1.47373786581E+01
  1.51013919110E+01  1.54743962912E+01  1.58566138796E+01  1.62482722424E+01
  1.66496045668E+01  1.70608497996E+01  1.74822527896E+01  1.79140644335E+01
  1.83565418250E+01  1.88099484081E+01  1.92745541338E+01  1.97506356209E+01
  2.02384763207E+01  2.07383666859E+01  2.12506043430E+01  2.17754942703E+01
  2.23133489787E+01  2.28644886985E+01  2.34292415694E+01  2.40079438361E+01
  2.46009400489E+01  2.52085832681E+01  2.58312352748E+01  2.64692667861E+01
  2.71230576757E+01  2.77929972003E+01  2.84794842312E+01  2.91829274917E+01
  2.99037458007E+01  3.06423683220E+01  3.13992348196E+01  3.21747959196E+01
  3.29695133788E+01  3.37838603593E+01  3.46183217101E+01  3.54733942564E+01
  3.63495870945E+01  3.72474218957E+01  3.81674332166E+01  3.91101688170E+01
  4.00761899868E+01  4.10660718795E+01  4.20804038549E+01  4.31197898301E+01
  4.41848486389E+01  4.52762144003E+01  4.63945368960E+01  4.75404819573E+01
  4.87147318617E+01  4.99179857386E+01  5.11509599864E+01  5.24143886981E+01
  5.37090240989E+01  5.50356369941E+01  5.63950172279E+01  5.77879741534E+01
  5.92153371150E+01  6.06779559418E+01  6.21767014535E+01  6.37124659794E+01
  6.52861638891E+01  6.68987321372E+01  6.85511308210E+01  7.02443437522E+01
  7.19793790429E+01  7.37572697053E+01  7.55790742670E+01  7.74458774014E+01
  7.93587905732E+01
  </PP_R>
  <PP_RAB>
  4.91933202087E-06  5.04083952179E-06  5.16534825798E-06  5.29293235995E-06
  5.42366778924E-06  5.55763238363E-06  5.69490590351E-06  5.83557007933E-06
  5.97970866029E-06  6.12740746420E-06  6.27875442856E-06  6.43383966295E-06
  6.59275550262E-06  6.75559656354E-06  6.92245979866E-06  7.09344455568E-06
  7.26865263621E-06  7.44818835632E-06  7.63215860872E-06  7.82067292636E-06
  8.01384354764E-06  8.21178548327E-06  8.41461658470E-06  8.62245761435E-06
  8.83543231742E-06  9.05366749566E-06  9.27729308280E-06  9.50644222195E-06
  9.74125134483E-06  9.98186025305E-06  1.02284122013E-05  1.04810539827E-05
  1.07399360160E-05  1.10052124356E-05  1.12770411828E-05  1.15555841000E-05
  1.18410070273E-05  1.21334799009E-05  1.24331768544E-05  1.27402763227E-05
  1.30549611479E-05  1.33774186882E-05  1.37078409298E-05  1.40464246008E-05
  1.43933712884E-05  1.47488875593E-05  1.51131850820E-05  1.54864807535E-05
  1.58689968281E-05  1.62609610498E-05  1.66626067877E-05  1.70741731754E-05
  1.74959052528E-05  1.79280541125E-05  1.83708770491E-05  1.88246377122E-05
  1.92896062637E-05  1.97660595384E-05  2.02542812090E-05  2.07545619549E-05
  2.12671996352E-05  2.17924994662E-05  2.23307742030E-05  2.28823443258E-05
  2.34475382306E-05  2.40266924249E-05  2.46201517278E-05  2.52282694755E-05
  2.58514077316E-05  2.64899375025E-05  2.71442389588E-05  2.78147016611E-05
  2.85017247922E-05  2.92057173945E-05  2.99270986142E-05  3.06662979499E-05
  3.14237555093E-05  3.21999222704E-05  3.29952603505E-05  3.38102432811E-05
  3.46453562902E-05  3.55010965905E-05  3.63779736763E-05  3.72765096261E-05
  3.81972394139E-05  3.91407112274E-05  4.01074867947E-05  4.10981417185E-05
  4.21132658190E-05  4.31534634847E-05  4.42193540328E-05  4.53115720774E-05
  4.64307679077E-05  4.75776078750E-05  4.87527747896E-05  4.99569683269E-05
  5.11909054445E-05  5.24553208090E-05  5.37509672330E-05  5.50786161236E-05
  5.64390579419E-05  5.78331026731E-05  5.92615803091E-05  6.07253413427E-05
  6.22252572739E-05  6.37622211286E-05  6.53371479904E-05  6.69509755458E-05
  6.86046646418E-05  7.02991998584E-05  7.20355900949E-05  7.38148691703E-05
  7.56380964388E-05  7.75063574208E-05  7.94207644491E-05  8.13824573310E-05
  8.33926040271E-05  8.54524013466E-05  8.75630756598E-05  8.97258836286E-05
  9.19421129542E-05  9.42130831442E-05  9.65401462979E-05  9.89246879114E-05
  1.01368127703E-04  1.03871920457E-04  1.06437556892E-04  1.09066564548E-04
  1.11760508692E-04  1.14520993257E-04  1.17349661790E-04  1.20248198436E-04
  1.23218328938E-04  1.26261821662E-04  1.29380488658E-04  1.32576186727E-04
  1.35850818540E-04  1.39206333757E-04  1.42644730201E-04  1.46168055037E-04
  1.49778405997E-04  1.53477932625E-04  1.57268837561E-04  1.61153377848E-04
  1.65133866281E-04  1.69212672778E-04  1.73392225796E-04  1.77675013773E-04
  1.82063586613E-04  1.86560557203E-04  1.91168602966E-04  1.95890467459E-04
  2.00728962005E-04  2.05686967367E-04  2.10767435461E-04  2.15973391116E-04
  2.21307933877E-04  2.26774239844E-04  2.32375563568E-04  2.38115239988E-04
  2.43996686416E-04  2.50023404570E-04  2.56198982663E-04  2.62527097535E-04
  2.69011516844E-04  2.75656101310E-04  2.82464807012E-04  2.89441687746E-04
  2.96590897433E-04  3.03916692599E-04  3.11423434907E-04  3.19115593749E-04
  3.26997748914E-04  3.35074593313E-04  3.43350935767E-04  3.51831703881E-04
  3.60521946967E-04  3.69426839057E-04  3.78551681982E-04  3.87901908526E-04
  3.97483085667E-04  4.07300917883E-04  4.17361250555E-04  4.27670073443E-04
  4.38233524258E-04  4.49057892307E-04  4.60149622247E-04  4.71515317916E-04
  4.83161746269E-04  4.95095841402E-04  5.07324708684E-04  5.19855628989E-04
  5.32696063025E-04  5.45853655781E-04  5.59336241079E-04  5.73151846234E-04
  5.87308696836E-04  6.01815221648E-04  6.16680057622E-04  6.31912055046E-04
  6.47520282805E-04  6.63514033791E-04  6.79902830425E-04  6.96696430337E-04
  7.13904832166E-04  7.31538281521E-04  7.49607277074E-04  7.68122576818E-04
  7.87095204465E-04  8.06536456015E-04  8.26457906479E-04  8.46871416769E-04
  8.67789140763E-04  8.89223532540E-04  9.11187353794E-04  9.33693681433E-04
  9.56755915364E-04  9.80387786473E-04  1.00460336480E-03  1.02941706791E-03
  1.05484366949E-03  1.08089830812E-03  1.10759649633E-03  1.13495412979E-03
  1.16298749680E-03  1.19171328797E-03  1.22114860618E-03  1.25131097676E-03
  1.28221835788E-03  1.31388915132E-03  1.34634221336E-03  1.37959686603E-03
  1.41367290862E-03  1.44859062946E-03  1.48437081801E-03  1.52103477722E-03
  1.55860433621E-03  1.59710186332E-03  1.63655027934E-03  1.67697307124E-03
  1.71839430610E-03  1.76083864546E-03  1.80433136000E-03  1.84889834460E-03
  1.89456613371E-03  1.94136191721E-03  1.98931355657E-03  2.03844960141E-03
  2.08879930657E-03  2.14039264944E-03  2.19326034788E-03  2.24743387847E-03
  2.30294549527E-03  2.35982824901E-03  2.41811600676E-03  2.47784347212E-03
  2.53904620588E-03  2.60176064717E-03  2.66602413515E-03  2.73187493129E-03
  2.79935224210E-03  2.86849624248E-03  2.93934809966E-03  3.01194999773E-03
  3.08634516267E-03  3.16257788819E-03  3.24069356203E-03  3.32073869301E-03
  3.40276093873E-03  3.48680913391E-03  3.57293331952E-03  3.66118477251E-03
  3.75161603639E-03  3.84428095249E-03  3.93923469202E-03  4.03653378891E-03
  4.13623617350E-03  4.23840120698E-03  4.34308971680E-03  4.45036403280E-03
  4.56028802441E-03  4.67292713861E-03  4.78834843894E-03  4.90662064538E-03
  5.02781417532E-03  5.15200118545E-03  5.27925561473E-03  5.40965322842E-03
  5.54327166316E-03  5.68019047324E-03  5.82049117793E-03  5.96425731002E-03
  6.11157446558E-03  6.26253035488E-03  6.41721485464E-03  6.57572006155E-03
  6.73814034707E-03  6.90457241365E-03  7.07511535226E-03  7.24987070146E-03
  7.42894250779E-03  7.61243738773E-03  7.80046459121E-03  7.99313606661E-03
  8.19056652746E-03  8.39287352069E-03  8.60017749665E-03  8.81260188081E-03
  9.03027314727E-03  9.25332089401E-03  9.48187792009E-03  9.71608030472E-03
  9.95606748824E-03  1.02019823552E-02  1.04539713194E-02  1.07121844110E-02
  1.09767753659E-02  1.12479017175E-02  1.15257248899E-02  1.18104102947E-02
  1.21021274289E-02  1.24010499764E-02  1.27073559108E-02  1.30212276018E-02
  1.33428519236E-02  1.36724203661E-02  1.40101291492E-02  1.43561793391E-02
  1.47107769688E-02  1.50741331600E-02  1.54464642490E-02  1.58279919160E-02
  1.62189433163E-02  1.66195512162E-02  1.70300541312E-02  1.74506964683E-02
  1.78817286710E-02  1.83234073692E-02  1.87759955312E-02  1.92397626209E-02
  1.97149847576E-02  2.02019448811E-02  2.07009329197E-02  2.12122459628E-02
  2.17361884381E-02  2.22730722925E-02  2.28232171781E-02  2.33869506424E-02
  2.39646083233E-02  2.45565341489E-02  2.51630805423E-02  2.57846086317E-02
  2.64214884649E-02  2.70740992300E-02  2.77428294810E-02  2.84280773692E-02
  2.91302508802E-02  2.98497680769E-02  3.05870573484E-02  3.13425576649E-02
  3.21167188393E-02  3.29100017946E-02  3.37228788389E-02  3.45558339463E-02
  3.54093630447E-02  3.62839743119E-02  3.71801884774E-02  3.80985391328E-02
  3.90395730494E-02  4.00038505037E-02  4.09919456112E-02  4.20044466678E-02
  4.30419565005E-02  4.41050928260E-02  4.51944886188E-02  4.63107924877E-02
  4.74546690622E-02  4.86267993880E-02  4.98278813329E-02  5.10586300018E-02
  5.23197781628E-02  5.36120766835E-02  5.49362949775E-02  5.62932214635E-02
  5.76836640336E-02  5.91084505353E-02  6.05684292635E-02  6.20644694663E-02
  6.35974618621E-02  6.51683191701E-02  6.67779766536E-02  6.84273926770E-02
  7.01175492761E-02  7.18494527432E-02  7.36241342260E-02  7.54426503413E-02
  7.73060838048E-02  7.92155440747E-02  8.11721680134E-02  8.31771205633E-02
  8.52315954412E-02  8.73368158486E-02  8.94940352001E-02  9.17045378695E-02
  9.39696399549E-02  9.62906900618E-02  9.86690701063E-02  1.01106196138E-01
  1.03603519183E-01  1.06162526106E-01  1.08784740501E-01  1.11471723592E-01
  1.14225075164E-01  1.17046434521E-01  1.19937481454E-01  1.22899937245E-01
  1.25935565695E-01  1.29046174168E-01  1.32233614670E-01  1.35499784952E-01
  1.38846629641E-01  1.42276141393E-01  1.45790362085E-01  1.49391384029E-01
  1.53081351214E-01  1.56862460589E-01  1.60736963366E-01  1.64707166361E-01
  1.68775433370E-01  1.72944186574E-01  1.77215907983E-01  1.81593140910E-01
  1.86078491490E-01  1.90674630230E-01  1.95384293597E-01  2.00210285649E-01
  2.05155479704E-01  2.10222820053E-01  2.15415323708E-01  2.20736082204E-01
  2.26188263434E-01  2.31775113541E-01  2.37499958845E-01  2.43366207829E-01
  2.49377353162E-01  2.55536973785E-01  2.61848737038E-01  2.68316400843E-01
  2.74943815944E-01  2.81734928197E-01  2.88693780924E-01  2.95824517313E-01
  3.03131382890E-01  3.10618728048E-01  3.18291010630E-01  3.26152798593E-01
  3.34208772718E-01  3.42463729404E-01  3.50922583521E-01  3.59590371334E-01
  3.68472253506E-01  3.77573518167E-01  3.86899584066E-01  3.96456003792E-01
  4.06248467086E-01  4.16282804223E-01  4.26564989487E-01  4.37101144728E-01
  4.47897543002E-01  4.58960612315E-01  4.70296939439E-01  4.81913273843E-01
  4.93816531707E-01  5.06013800040E-01  5.18512340901E-01  5.31319595721E-01
  5.44443189736E-01  5.57890936522E-01  5.71670842654E-01  5.85791112468E-01
  6.00260152946E-01  6.15086578723E-01  6.30279217218E-01  6.45847113883E-01
  6.61799537596E-01  6.78145986175E-01  6.94896192033E-01  7.12060127976E-01
  7.29648013137E-01  7.47670319062E-01  7.66137775943E-01  7.85061379008E-01
  8.04452395070E-01  8.24322369228E-01  8.44683131748E-01  8.65546805102E-01
  8.86925811188E-01  9.08832878725E-01  9.31281050829E-01  9.54283692785E-01
  9.77854499996E-01  1.00200750615E+00  1.02675709155E+00  1.05211799171E+00
  1.07810530610E+00  1.10473450717E+00  1.13202144949E+00  1.15998237929E+00
  1.18863394406E+00  1.21799320248E+00  1.24807763458E+00  1.27890515216E+00
  1.31049410942E+00  1.34286331392E+00  1.37603203777E+00  1.41002002910E+00
  1.44484752382E+00  1.48053525766E+00  1.51710447853E+00  1.55457695915E+00
  1.59297501004E+00  1.63232149278E+00  1.67263983366E+00  1.71395403755E+00
  1.75628870228E+00  1.79966903322E+00  1.84412085834E+00  1.88967064354E+00
  1.93634550844E+00
  </PP_RAB>
</PP_MESH>


<PP_NLCC>
  1.06761187345E+00  1.06761187345E+00  1.06761187345E+00  1.06761187345E+00
  1.06761187345E+00  1.06761187345E+00  1.06761187345E+00  1.06761187345E+00
  1.06761187345E+00  1.06761187345E+00  1.06761187344E+00  1.06761187344E+00
  1.06761187344E+00  1.06761187344E+00  1.06761187344E+00  1.06761187344E+00
  1.06761187343E+00  1.06761187343E+00  1.06761187343E+00  1.06761187343E+00
  1.06761187342E+00  1.06761187342E+00  1.06761187342E+00  1.06761187341E+00
  1.06761187341E+00  1.06761187341E+00  1.06761187340E+00  1.06761187340E+00
  1.06761187339E+00  1.06761187339E+00  1.06761187338E+00  1.06761187338E+00
  1.06761187337E+00  1.06761187336E+00  1.06761187335E+00  1.06761187335E+00
  1.06761187334E+00  1.06761187333E+00  1.06761187332E+00  1.06761187331E+00
  1.06761187329E+00  1.06761187328E+00  1.06761187327E+00  1.06761187325E+00
  1.06761187324E+00  1.06761187322E+00  1.06761187320E+00  1.06761187318E+00
  1.06761187316E+00  1.06761187314E+00  1.06761187311E+00  1.06761187308E+00
  1.06761187305E+00  1.06761187302E+00  1.06761187299E+00  1.06761187295E+00
  1.06761187292E+00  1.06761187287E+00  1.06761187283E+00  1.06761187278E+00
  1.06761187273E+00  1.06761187267E+00  1.06761187261E+00  1.06761187255E+00
  1.06761187248E+00  1.06761187241E+00  1.06761187233E+00  1.06761187224E+00
  1.06761187215E+00  1.06761187205E+00  1.06761187194E+00  1.06761187182E+00
  1.06761187170E+00  1.06761187157E+00  1.06761187142E+00  1.06761187127E+00
  1.06761187110E+00  1.06761187092E+00  1.06761187073E+00  1.06761187052E+00
  1.06761187030E+00  1.06761187005E+00  1.06761186980E+00  1.06761186952E+00
  1.06761186922E+00  1.06761186890E+00  1.06761186855E+00  1.06761186818E+00
  1.06761186777E+00  1.06761186734E+00  1.06761186688E+00  1.06761186638E+00
  1.06761186584E+00  1.06761186526E+00  1.06761186464E+00  1.06761186397E+00
  1.06761186325E+00  1.06761186247E+00  1.06761186163E+00  1.06761186074E+00
  1.06761185977E+00  1.06761185873E+00  1.06761185761E+00  1.06761185641E+00
  1.06761185511E+00  1.06761185372E+00  1.06761185222E+00  1.06761185061E+00
  1.06761184887E+00  1.06761184700E+00  1.06761184499E+00  1.06761184283E+00
  1.06761184051E+00  1.06761183800E+00  1.06761183531E+00  1.06761183242E+00
  1.06761182930E+00  1.06761182595E+00  1.06761182234E+00  1.06761181845E+00
  1.06761181428E+00  1.06761180978E+00  1.06761180495E+00  1.06761179975E+00
  1.06761179415E+00  1.06761178813E+00  1.06761178165E+00  1.06761177468E+00
  1.06761176718E+00  1.06761175911E+00  1.06761175042E+00  1.06761174108E+00
  1.06761173103E+00  1.06761172022E+00  1.06761170858E+00  1.06761169606E+00
  1.06761168259E+00  1.06761166810E+00  1.06761165251E+00  1.06761163573E+00
  1.06761161769E+00  1.06761159827E+00  1.06761157737E+00  1.06761155490E+00
  1.06761153071E+00  1.06761150469E+00  1.06761147669E+00  1.06761144657E+00
  1.06761141416E+00  1.06761137930E+00  1.06761134178E+00  1.06761130142E+00
  1.06761125799E+00  1.06761121127E+00  1.06761116100E+00  1.06761110692E+00
  1.06761104873E+00  1.06761098613E+00  1.06761091878E+00  1.06761084631E+00
  1.06761076834E+00  1.06761068446E+00  1.06761059421E+00  1.06761049711E+00
  1.06761039264E+00  1.06761028025E+00  1.06761015933E+00  1.06761002923E+00
  1.06760988926E+00  1.06760973867E+00  1.06760957665E+00  1.06760940234E+00
  1.06760921481E+00  1.06760901304E+00  1.06760879597E+00  1.06760856244E+00
  1.06760831118E+00  1.06760804086E+00  1.06760775004E+00  1.06760743716E+00
  1.06760710054E+00  1.06760673840E+00  1.06760634878E+00  1.06760592961E+00
  1.06760547865E+00  1.06760499349E+00  1.06760447154E+00  1.06760391000E+00
  1.06760330588E+00  1.06760265596E+00  1.06760195675E+00  1.06760120453E+00
  1.06760039527E+00  1.06759952467E+00  1.06759858806E+00  1.06759758045E+00
  1.06759649646E+00  1.06759533031E+00  1.06759407577E+00  1.06759272615E+00
  1.06759127425E+00  1.06758971232E+00  1.06758803204E+00  1.06758622444E+00
  1.06758427989E+00  1.06758218802E+00  1.06757993768E+00  1.06757751688E+00
  1.06757491273E+00  1.06757211134E+00  1.06756909780E+00  1.06756585607E+00
  1.06756236888E+00  1.06755861768E+00  1.06755458249E+00  1.06755024187E+00
  1.06754557271E+00  1.06754055019E+00  1.06753514761E+00  1.06752933625E+00
  1.06752308524E+00  1.06751636137E+00  1.06750912894E+00  1.06750134955E+00
  1.06749298192E+00  1.06748398165E+00  1.06747430102E+00  1.06746388869E+00
  1.06745268950E+00  1.06744064410E+00  1.06742768871E+00  1.06741375476E+00
  1.06739876852E+00  1.06738265073E+00  1.06736531619E+00  1.06734667329E+00
  1.06732662359E+00  1.06730506124E+00  1.06728187250E+00  1.06725693508E+00
  1.06723011758E+00  1.06720127875E+00  1.06717026681E+00  1.06713691862E+00
  1.06710105888E+00  1.06706249925E+00  1.06702103730E+00  1.06697645556E+00
  1.06692852038E+00  1.06687698074E+00  1.06682156696E+00  1.06676198935E+00
  1.06669793673E+00  1.06662907490E+00  1.06655504487E+00  1.06647546116E+00
  1.06638990979E+00  1.06629794623E+00  1.06619909322E+00  1.06609283834E+00
  1.06597863152E+00  1.06585588230E+00  1.06572395694E+00  1.06558217530E+00
  1.06542980751E+00  1.06526607046E+00  1.06509012394E+00  1.06490106668E+00
  1.06469793193E+00  1.06447968291E+00  1.06424520783E+00  1.06399331469E+00
  1.06372272562E+00  1.06343207096E+00  1.06311988286E+00  1.06278458853E+00
  1.06242450302E+00  1.06203782157E+00  1.06162261145E+00  1.06117680332E+00
  1.06069818203E+00  1.06018437689E+00  1.05963285132E+00  1.05904089195E+00
  1.05840559699E+00  1.05772386403E+00  1.05699237709E+00  1.05620759297E+00
  1.05536572691E+00  1.05446273740E+00  1.05349431027E+00  1.05245584203E+00
  1.05134242230E+00  1.05014881548E+00  1.04886944163E+00  1.04749835648E+00
  1.04602923063E+00  1.04445532802E+00  1.04276948361E+00  1.04096408028E+00
  1.03903102518E+00  1.03696172540E+00  1.03474706313E+00  1.03237737046E+00
  1.02984240389E+00  1.02713131875E+00  1.02423264359E+00  1.02113425505E+00
  1.01782335308E+00  1.01428643721E+00  1.01050928385E+00  1.00647692534E+00
  1.00217363099E+00  9.97582890776E-01  9.92687402196E-01  9.87469061051E-01
  9.81908956866E-01  9.75987373853E-01  9.69683798372E-01  9.62976933983E-01
  9.55844725313E-01  9.48264392079E-01  9.40212474749E-01  9.31664893503E-01
  9.22597022289E-01  9.12983779933E-01  9.02799740474E-01  8.92019265022E-01
  8.80616657646E-01  8.68566347966E-01  8.55843103286E-01  8.42422273244E-01
  8.28280070110E-01  8.13393887919E-01  7.97742663704E-01  7.81307284049E-01
  7.64071040117E-01  7.46020134052E-01  7.27144239373E-01  7.07437117402E-01
  6.86897291097E-01  6.65528776621E-01  6.43341871667E-01  6.20353997856E-01
  5.96590592238E-01  5.72086040161E-01  5.46884638158E-01  5.21041571079E-01
  4.94623882151E-01  4.67711407854E-01  4.40397641111E-01  4.12790476101E-01
  3.85012775523E-01  3.57202686076E-01  3.29513609640E-01  3.02113715624E-01
  2.75184853447E-01  2.48920692301E-01  2.23523877231E-01  1.99201944972E-01
  1.76161688591E-01  1.54601595095E-01  1.34701902989E-01  1.16611735034E-01
  1.00432652513E-01  8.61978482245E-02  7.38310530919E-02  6.31274482544E-02
  5.38796814685E-02  4.59035354457E-02  3.90358734393E-02  3.31326565461E-02
  2.80670558400E-02  2.37276758497E-02  2.00169001319E-02  1.68493647956E-02
  1.41505617570E-02  1.18555702126E-02  9.90791225352E-03  8.25852661951E-03
  6.86485325413E-03  5.69002046621E-03  4.70212606762E-03  3.87360375446E-03
  3.18066615996E-03  2.60281636652E-03  2.12242016336E-03  1.72433192506E-03
  1.39556762415E-03  1.12501914346E-03  9.03204696577E-04  7.22050776905E-04
  5.74701626020E-04  4.55352730761E-04  3.59105323001E-04  2.81839265015E-04
  2.20102058875E-04  1.71012023884E-04  1.32173946226E-04  1.01605725162E-04
  7.76747254917E-05  5.90427020322E-05  4.46182934463E-05  3.35161943008E-05
  2.50222096981E-05  1.85634794308E-05  1.36832310821E-05  1.00194859691E-05
  7.28719996428E-06  5.26337424793E-06  3.77471983580E-06  2.68750487096E-06
  1.89925555973E-06  1.33202048890E-06  9.26944008570E-07  6.39927462568E-07
  4.38187327608E-07  2.97546811444E-07  2.00322199857E-07  1.33687297248E-07
  8.84187690168E-08  5.79421885992E-08  3.76132681483E-08  2.41812822995E-08