<UPF version="2.0.1">
  <PP_INFO>
    Generated using "atomic" code by A. Dal Corso (espresso distribution)
    Author: Alberto Debernardi
    Generation date: 14May2012
    Pseudopotential type: NC
    Element: Ga
    Functional: PZ

    Suggested minimum cutoff for wavefunctions:  52. Ry
    Suggested minimum cutoff for charge density: 209. Ry
    The Pseudo was generated with a Fully-Relativistic Calculation
    L component and cutoff radius for Local Potential:  2   4.8000
    Pseudopotential contains additional information for spin-orbit calculations.

    Valence configuration:
    nl pn  l   occ       Rcut    Rcut US       E pseu
    4S  1  0  2.00      1.700      1.700    -0.670575
    4P  2  1  1.00      1.800      1.800    -0.204597
    4P  2  1  0.00      1.800      1.800    -0.195688
    Generation configuration:
    4S  1  0  2.00      1.700      1.700    -0.670575
    4P  2  1  1.00      1.800      1.800    -0.204597
    4P  2  1  0.00      1.800      1.800    -0.195688
    4D  3  2 -1.00      4.800      4.800     0.300000
    4D  3  2 -1.00      4.800      4.800     0.300000

    Pseudization used: rrkj
  </PP_INFO>
  <!--                               -->
  <!-- END OF HUMAN READABLE SECTION -->
  <!--                               -->
  <PP_HEADER generated='Generated using "atomic" code by A. Dal Corso (espresso distribution)'
             author="Alberto Debernardi"
             date="14May2012"
             comment=""
             element="Ga"
             pseudo_type="NC"
             relativistic="full"
             is_ultrasoft="F"
             is_paw="F"
             is_coulomb="F"
             has_so="T"
             has_wfc="F"
             has_gipaw="F"
             core_correction="F"
             functional="PZ                  "
             z_valence="3.000000000000000E+000"
             total_psenergy="-4.252911024540187E+000"
             wfc_cutoff="5.217088268141726E+001"
             rho_cutoff="2.086835307256690E+002"
             l_max="2"
             l_max_rho="4"
             l_local="2"
             mesh_size="1205"
             number_of_wfc="3"
             number_of_proj="3"/>
  <PP_MESH dx="1.250000000000000E-002" mesh="1205" xmin="-7.000000000000000E+000" rmax="1.000000000000000E+002"
zmesh="3.100000000000000E+001">
    <PP_R type="real" size="1205" columns="4">
 2.941554727595214E-005  2.978554931190394E-005  3.016020540053491E-005  3.053957408262109E-005
 3.092371463529096E-005  3.131268708128738E-005  3.170655219834641E-005  3.210537152869391E-005
 3.250920738866163E-005  3.291812287842434E-005  3.333218189185926E-005  3.375144912652963E-005
 3.417599009379387E-005  3.460587112904183E-005  3.504115940205993E-005  3.548192292752640E-005
 3.592823057563882E-005  3.638015208287524E-005  3.683775806289056E-005  3.730112001755025E-005
 3.777031034810240E-005  3.824540236649074E-005  3.872647030680971E-005  3.921358933690370E-005
 3.970683557011229E-005  4.020628607716289E-005  4.071201889821337E-005  4.122411305504595E-005
 4.174264856341445E-005  4.226770644554710E-005  4.279936874280617E-005  4.333771852850732E-005
 4.388283992089980E-005  4.443481809631023E-005  4.499373930245157E-005  4.555969087189940E-005
 4.613276123573788E-005  4.671303993737728E-005  4.730061764654526E-005  4.789558617345442E-005
 4.849803848314750E-005  4.910806871002360E-005  4.972577217254679E-005  5.035124538813975E-005
 5.098458608826507E-005  5.162589323369562E-005  5.227526702997763E-005  5.293280894308794E-005
 5.359862171528819E-005  5.427280938117875E-005  5.495547728395400E-005  5.564673209186266E-005
 5.634668181487483E-005  5.705543582155873E-005  5.777310485617000E-005  5.849980105595533E-005
 5.923563796867442E-005  5.998073057034197E-005  6.073519528319282E-005  6.149914999387343E-005
 6.227271407186159E-005  6.305600838811830E-005  6.384915533397408E-005  6.465227884025288E-005
 6.546550439663658E-005  6.628895907127287E-005  6.712277153062998E-005  6.796707205960111E-005
 6.882199258186155E-005  6.968766668048240E-005  7.056422961880274E-005  7.145181836156505E-005
 7.235057159631624E-005  7.326062975507765E-005  7.418213503628827E-005  7.511523142702303E-005
 7.606006472549138E-005  7.701678256381850E-005  7.798553443111302E-005  7.896647169682527E-005
 7.995974763439866E-005  8.096551744521930E-005  8.198393828286639E-005  8.301516927766775E-005
 8.405937156156446E-005  8.511670829328779E-005  8.618734468385324E-005  8.727144802237506E-005
 8.836918770220543E-005  8.948073524740285E-005  9.060626433953266E-005  9.174595084480541E-005
 9.289997284155622E-005  9.406851064806993E-005  9.525174685075634E-005  9.644986633267937E-005
 9.766305630244566E-005  9.889150632345622E-005  1.001354083435261E-004  1.013949567248768E-004
 1.026703482745054E-004  1.039617822749363E-004  1.052694605153596E-004  1.065935873231607E-004
 1.079343695958475E-004  1.092920168333778E-004  1.106667411708947E-004  1.120587574118727E-004
 1.134682830616816E-004  1.148955383615719E-004  1.163407463230881E-004  1.178041327629143E-004
 1.192859263381591E-004  1.207863585820832E-004  1.223056639402777E-004  1.238440798072956E-004
 1.254018465637461E-004  1.269792076138543E-004  1.285764094234932E-004  1.301937015586954E-004
 1.318313367246473E-004  1.334895708051754E-004  1.351686629027284E-004  1.368688753788626E-004
 1.385904738952368E-004  1.403337274551216E-004  1.420989084454325E-004  1.438862926792904E-004
 1.456961594391183E-004  1.475287915202798E-004  1.493844752752660E-004  1.512635006584391E-004
 1.531661612713380E-004  1.550927544085544E-004  1.570435811041859E-004  1.590189461788726E-004
 1.610191582874264E-004  1.630445299670585E-004  1.650953776862146E-004  1.671720218940234E-004
 1.692747870703672E-004  1.714040017765831E-004  1.735599987068007E-004  1.757431147399266E-004
 1.779536909922830E-004  1.801920728709064E-004  1.824586101275196E-004  1.847536569131802E-004
 1.870775718336175E-004  1.894307180052662E-004  1.918134631120030E-004  1.942261794625987E-004
 1.966692440488915E-004  1.991430386046936E-004  2.016479496654375E-004  2.041843686285725E-004
 2.067526918147220E-004  2.093533205296093E-004  2.119866611267617E-004  2.146531250710056E-004
 2.173531290027570E-004  2.200870948031235E-004  2.228554496598236E-004  2.256586261339358E-004
 2.284970622274879E-004  2.313712014518935E-004  2.342814928972546E-004  2.372283913025302E-004
 2.402123571265915E-004  2.432338566201702E-004  2.462933618987085E-004  2.493913510161313E-004
 2.525283080395411E-004  2.557047231248546E-004  2.589210925933923E-004  2.621779190094262E-004
 2.654757112587107E-004  2.688149846279939E-004  2.721962608855332E-004  2.756200683626241E-004
 2.790869420361495E-004  2.825974236121751E-004  2.861520616105890E-004  2.897514114508102E-004
 2.933960355385750E-004  2.970865033538110E-004  3.008233915396235E-004  3.046072839923939E-004
 3.084387719530163E-004  3.123184540992804E-004  3.162469366394138E-004  3.202248334068068E-004
 3.242527659559221E-004  3.283313636594151E-004  3.324612638064758E-004  3.366431117024034E-004
 3.408775607694405E-004  3.451652726488686E-004  3.495069173043920E-004  3.539031731268222E-004
 3.583547270400744E-004  3.628622746085053E-004  3.674265201455928E-004  3.720481768239878E-004
 3.767279667869501E-004  3.814666212611812E-004  3.862648806710846E-004  3.911234947544548E-004
 3.960432226796270E-004  4.010248331640998E-004  4.060691045946451E-004  4.111768251489377E-004
 4.163487929187056E-004  4.215858160344348E-004  4.268887127916433E-004  4.322583117787364E-004
 4.376954520064817E-004  4.432009830391014E-004  4.487757651270200E-004  4.544206693412818E-004
 4.601365777096534E-004  4.659243833544477E-004  4.717849906320717E-004  4.777193152743355E-004
 4.837282845315393E-004  4.898128373173531E-004  4.959739243555301E-004  5.022125083284546E-004
 5.085295640275641E-004  5.149260785056653E-004  5.214030512311573E-004  5.279614942442074E-004
 5.346024323148792E-004  5.413269031032567E-004  5.481359573215834E-004  5.550306588984317E-004
 5.620120851449520E-004  5.690813269231988E-004  5.762394888165817E-004  5.834876893024617E-004
 5.908270609269090E-004  5.982587504816737E-004  6.057839191833680E-004  6.134037428549115E-004
 6.211194121092558E-004  6.289321325354192E-004  6.368431248868639E-004  6.448536252722397E-004
 6.529648853485288E-004  6.611781725166212E-004  6.694947701193465E-004  6.779159776420010E-004
 6.864431109153928E-004  6.950775023214442E-004  7.038205010013798E-004  7.126734730665304E-004
 7.216378018117936E-004  7.307148879317733E-004  7.399061497396429E-004  7.492130233887605E-004
 7.586369630970679E-004  7.681794413743187E-004  7.778419492521573E-004  7.876259965170979E-004
 7.975331119464322E-004  8.075648435471015E-004  8.177227587975789E-004  8.280084448927882E-004
 8.384235089921079E-004  8.489695784704940E-004  8.596483011727576E-004  8.704613456710479E-004
 8.814104015255667E-004  8.924971795485670E-004  9.037234120716716E-004  9.150908532165517E-004
 9.266012791690140E-004  9.382564884565315E-004  9.500583022292674E-004  9.620085645446358E-004
 9.741091426554356E-004  9.863619273016160E-004  9.987688330057062E-004  1.011331798371964E-003
 1.024052786389289E-003  1.036933784737938E-003  1.049976806100111E-003  1.063183888474431E-003
 1.076557095494390E-003  1.090098516750792E-003  1.103810268118259E-003  1.117694492085840E-003
 1.131753358091776E-003  1.145989062862483E-003  1.160403830755796E-003  1.174999914108524E-003
 1.189779593588388E-003  1.204745178550375E-003  1.219899007397583E-003  1.235243447946602E-003
 1.250780897797484E-003  1.266513784708381E-003  1.282444566974881E-003  1.298575733814124E-003
 1.314909805753749E-003  1.331449335025727E-003  1.348196905965159E-003  1.365155135414075E-003
 1.382326673130329E-003  1.399714202201625E-003  1.417320439464756E-003  1.435148135930114E-003
 1.453200077211543E-003  1.471479083961594E-003  1.489988012312262E-003  1.508729754321257E-003
 1.527707238423901E-003  1.546923429890693E-003  1.566381331290644E-003  1.586083982960438E-003
 1.606034463479482E-003  1.626235890150948E-003  1.646691419488852E-003  1.667404247711271E-003
 1.688377611239754E-003  1.709614787205026E-003  1.731119093959037E-003  1.752893891593467E-003
 1.774942582464750E-003  1.797268611725690E-003  1.819875467863786E-003  1.842766683246300E-003
 1.865945834672209E-003  1.889416543931083E-003  1.913182478368991E-003  1.937247351461547E-003
 1.961614923394128E-003  1.986289001649427E-003  2.011273441602370E-003  2.036572147122528E-003
 2.062189071184115E-003  2.088128216483631E-003  2.114393636065302E-003  2.140989433954376E-003
 2.167919765798379E-003  2.195188839516458E-003  2.222800915956858E-003  2.250760309562699E-003
 2.279071389046117E-003  2.307738578070878E-003  2.336766355943595E-003  2.366159258313617E-003
 2.395921877881739E-003  2.426058865117820E-003  2.456574928987430E-003  2.487474837687636E-003
 2.518763419392038E-003  2.550445563005183E-003  2.582526218926471E-003  2.615010399823653E-003
 2.647903181416090E-003  2.681209703267825E-003  2.714935169590658E-003  2.749084850057319E-003
 2.783664080624855E-003  2.818678264368399E-003  2.854132872325397E-003  2.890033444350475E-003
 2.926385589981050E-003  2.963194989313835E-003  3.000467393892371E-003  3.038208627605700E-003
 3.076424587598376E-003  3.115121245191899E-003  3.154304646817744E-003  3.193980914962139E-003
 3.234156249122701E-003  3.274836926777132E-003  3.316029304364078E-003  3.357739818276344E-003
 3.399974985866592E-003  3.442741406465684E-003  3.486045762413849E-003  3.529894820104806E-003
 3.574295431043031E-003  3.619254532914314E-003  3.664779150669799E-003  3.710876397623627E-003
 3.757553476564420E-003  3.804817680880728E-003  3.852676395700633E-003  3.901137099045700E-003
 3.950207362999418E-003  3.999894854890364E-003  4.050207338490236E-003  4.101152675226954E-003
 4.152738825413040E-003  4.204973849489409E-003  4.257865909284848E-003  4.311423269291307E-003
 4.365654297955248E-003  4.420567468985242E-003  4.476171362675977E-003  4.532474667248974E-003
 4.589486180210119E-003  4.647214809724299E-003  4.705669576007336E-003  4.764859612735382E-003
 4.824794168472101E-003  4.885482608113763E-003  4.946934414352532E-003  5.009159189158162E-003
 5.072166655278312E-003  5.135966657757753E-003  5.200569165476674E-003  5.265984272708336E-003
 5.332222200696341E-003  5.399293299251696E-003  5.467208048370006E-003  5.535977059868995E-003
 5.605611079046617E-003  5.676120986360049E-003  5.747517799125757E-003  5.819812673240996E-003
 5.893016904926929E-003  5.967141932493686E-003  6.042199338127646E-003  6.118200849701139E-003
 6.195158342604975E-003  6.273083841603989E-003  6.351989522715937E-003  6.431887715114038E-003
 6.512790903053402E-003  6.594711727821745E-003  6.677662989714606E-003  6.761657650035413E-003
 6.846708833120745E-003  6.932829828390989E-003  7.020034092426871E-003  7.108335251072065E-003
 7.197747101562253E-003  7.288283614680997E-003  7.379958936942661E-003  7.472787392802867E-003
 7.566783486896704E-003  7.661961906305101E-003  7.758337522849748E-003  7.855925395416800E-003
 7.954740772309890E-003  8.054799093632700E-003  8.156115993701498E-003  8.258707303488067E-003
 8.362589053093278E-003  8.467777474251852E-003  8.574289002868605E-003  8.682140281586577E-003
 8.791348162387505E-003  8.901929709224942E-003  9.013902200690562E-003  9.127283132713970E-003
 9.242090221296455E-003  9.358341405279205E-003  9.476054849146223E-003  9.595248945862604E-003
 9.715942319748462E-003  9.838153829389009E-003  9.961902570581287E-003  1.008720787931787E-002
 1.021408933480817E-002  1.034256676253777E-002  1.047266023736612E-002  1.060439008666336E-002
 1.073777689348644E-002  1.087284149979531E-002  1.100960500970948E-002  1.114808879280563E-002
 1.128831448745663E-002  1.143030400421254E-002  1.157407952922425E-002  1.171966352771005E-002
 1.186707874746588E-002  1.201634822241977E-002  1.216749527623087E-002  1.232054352593384E-002
 1.247551688562908E-002  1.263243957021932E-002  1.279133609919332E-002  1.295223130045699E-002
 1.311515031421288E-002  1.328011859688835E-002  1.344716192511317E-002  1.361630639974728E-002
 1.378757844995893E-002  1.396100483735444E-002  1.413661266015966E-002  1.431442935745419E-002
 1.449448271345876E-002  1.467680086187657E-002  1.486141229028923E-002  1.504834584460802E-002
 1.523763073358112E-002  1.542929653335755E-002  1.562337319210847E-002  1.581989103470666E-002
 1.601888076746483E-002  1.622037348293358E-002  1.642440066475966E-002  1.663099419260530E-002
 1.684018634712956E-002  1.705200981503218E-002  1.726649769416098E-002  1.748368349868346E-002
 1.770360116432344E-002  1.792628505366360E-002  1.815176996151471E-002  1.838009112035235E-002
 1.861128420582215E-002  1.884538534231407E-002  1.908243110860695E-002  1.932245854358406E-002
 1.956550515202043E-002  1.981160891044316E-002  2.006080827306517E-002  2.031314217779388E-002
 2.056865005231528E-002  2.082737182025458E-002  2.108934790741443E-002  2.135461924809143E-002
 2.162322729147225E-002  2.189521400811015E-002  2.217062189648298E-002  2.244949398963362E-002
 2.273187386189399E-002  2.301780563569364E-002  2.330733398845396E-002  2.360050415956909E-002
 2.389736195747478E-002  2.419795376680587E-002  2.450232655564416E-002  2.481052788285713E-002
 2.512260590552919E-002  2.543860938648635E-002  2.575858770191540E-002  2.608259084907913E-002
 2.641066945412847E-002  2.674287478001292E-002  2.707925873449056E-002  2.741987387823866E-002
 2.776477343306639E-002  2.811401129023092E-002  2.846764201885792E-002  2.882572087446825E-002
 2.918830380761161E-002  2.955544747260897E-002  2.992720923640495E-002  3.030364718753148E-002
 3.068482014518433E-002  3.107078766841362E-002  3.146161006543010E-002  3.185734840302846E-002
 3.225806451612903E-002  3.266382101743983E-002  3.307468130723965E-002  3.349070958328469E-002
 3.391197085083951E-002  3.433853093283417E-002  3.477045648014941E-002  3.520781498203071E-002
 3.565067477663381E-002  3.609910506170262E-002  3.655317590538149E-002  3.701295825716363E-002
 3.747852395897689E-002  3.794994575640939E-002  3.842729731007610E-002  3.891065320712841E-002
 3.940008897290871E-002  3.989568108275113E-002  4.039750697393113E-002  4.090564505776517E-002
 4.142017473186262E-002  4.194117639253198E-002  4.246873144734264E-002  4.300292232784527E-002
 4.354383250245174E-002  4.409154648947730E-002  4.464614987034683E-002  4.520772930296690E-002
 4.577637253526639E-002  4.635216841890727E-002  4.693520692316779E-002  4.752557914900051E-002
 4.812337734326680E-002  4.872869491315075E-002  4.934162644075419E-002  4.996226769787526E-002
 5.059071566097320E-002  5.122706852632077E-002  5.187142572534786E-002  5.252388794017777E-002
 5.318455711935897E-002  5.385353649379494E-002  5.453093059287393E-002  5.521684526080211E-002
 5.591138767314182E-002  5.661466635355802E-002  5.732679119077545E-002  5.804787345574868E-002
 5.877802581904871E-002  5.951736236846777E-002  6.026599862684588E-002  6.102405157012162E-002
 6.179163964560957E-002  6.256888279050823E-002  6.335590245064028E-002  6.415282159942877E-002
 6.495976475711217E-002  6.577685801020051E-002  6.660422903117702E-002  6.744200709844700E-002
 6.829032311653789E-002  6.914930963655354E-002  7.001910087688526E-002  7.089983274418397E-002
 7.179164285459579E-002  7.269467055526480E-002  7.360905694610659E-002  7.453494490185499E-002
 7.547247909438684E-002  7.642180601532715E-002  7.738307399893865E-002  7.835643324529963E-002
 7.934203584377260E-002  8.034003579676878E-002  8.135058904381127E-002  8.237385348590086E-002
 8.340998901018860E-002  8.445915751495812E-002  8.552152293492284E-002  8.659725126684104E-002
 8.768651059545307E-002  8.878947111974539E-002  8.990630517954359E-002  9.103718728244192E-002
 9.218229413106986E-002  9.334180465070198E-002  9.451590001721628E-002  9.570476368540221E-002
 9.690858141762684E-002  9.812754131286018E-002  9.936183383606552E-002  1.006116518479611E-001
 1.018771906351538E-001  1.031586479406540E-001  1.044562239947730E-001  1.057701215464088E-001
 1.071005458947275E-001  1.084477049212397E-001  1.098118091222844E-001  1.111930716419186E-001
 1.125917083052207E-001  1.140079376520153E-001  1.154419809710187E-001  1.168940623344174E-001
 1.183644086328789E-001  1.198532496110034E-001  1.213608179032230E-001  1.228873490701504E-001
 1.244330816353862E-001  1.259982571227889E-001  1.275831200942122E-001  1.291879181877203E-001
 1.308129021562799E-001  1.324583259069423E-001  1.341244465405165E-001  1.358115243917407E-001
 1.375198230699620E-001  1.392496095003240E-001  1.410011539654760E-001  1.427747301478045E-001
 1.445706151721956E-001  1.463890896493389E-001  1.482304377195706E-001  1.500949470972732E-001
 1.519829091158305E-001  1.538946187731485E-001  1.558303747777511E-001  1.577904795954518E-001
 1.597752394966166E-001  1.617849646040181E-001  1.638199689412929E-001  1.658805704820094E-001
 1.679670911993500E-001  1.700798571164223E-001  1.722191983571993E-001  1.743854491981021E-001
 1.765789481202324E-001  1.788000378622588E-001  1.810490654739727E-001  1.833263823705144E-001
 1.856323443872816E-001  1.879673118355316E-001  1.903316495586780E-001  1.927257269893007E-001
 1.951499182068694E-001  1.976046019961931E-001  2.000901619066087E-001  2.026069863119086E-001
 2.051554684710268E-001  2.077360065894859E-001  2.103490038816165E-001  2.129948686335624E-001
 2.156740142670733E-001  2.183868594041056E-001  2.211338279322317E-001  2.239153490708721E-001
 2.267318574383645E-001  2.295837931198709E-001  2.324716017361440E-001  2.353957345131560E-001
 2.383566483526016E-001  2.413548059032931E-001  2.443906756334467E-001  2.474647319038848E-001
 2.505774550421541E-001  2.537293314175771E-001  2.569208535172510E-001  2.601525200229960E-001
 2.634248358892789E-001  2.667383124221120E-001  2.700934673589440E-001  2.734908249495607E-001
 2.769309160379966E-001  2.804142781454839E-001  2.839414555544391E-001  2.875129993935077E-001
 2.911294677236816E-001  2.947914256254944E-001  2.984994452873190E-001  3.022541060947721E-001
 3.060559947212428E-001  3.099057052195649E-001  3.138038391148351E-001  3.177510054984058E-001
 3.217478211230557E-001  3.257949104993565E-001  3.298929059932584E-001  3.340424479248934E-001
 3.382441846686313E-001  3.424987727543874E-001  3.468068769702050E-001  3.511691704661339E-001
 3.555863348594066E-001  3.600590603409473E-001  3.645880457832126E-001  3.691739988493910E-001
 3.738176361039807E-001  3.785196831247488E-001  3.832808746161095E-001  3.881019545239206E-001
 3.929836761517250E-001  3.979268022784602E-001  4.029321052776391E-001  4.080003672380394E-001
 4.131323800859046E-001  4.183289457086817E-001  4.235908760803235E-001  4.289189933881545E-001
 4.343141301613455E-001  4.397771294009924E-001  4.453088447118418E-001  4.509101404356660E-001
 4.565818917863164E-001  4.623249849864822E-001  4.681403174061589E-001  4.740287977028691E-001
 4.799913459636403E-001  4.860288938487675E-001  4.921423847373929E-001  4.983327738749040E-001
 5.046010285221991E-001  5.109481281068204E-001  5.173750643759896E-001  5.238828415515761E-001
 5.304724764870020E-001  5.371449988261336E-001  5.439014511641629E-001  5.507428892105116E-001
 5.576703819537956E-001  5.646850118288481E-001  5.717878748858595E-001  5.789800809616341E-001
 5.862627538530022E-001  5.936370314924216E-001  6.011040661257747E-001  6.086650244924157E-001
 6.163210880074732E-001  6.240734529464457E-001  6.319233306321297E-001  6.398719476238817E-001
 6.479205459092796E-001  6.560703830981816E-001  6.643227326192269E-001  6.726788839188205E-001
 6.811401426626008E-001  6.897078309394626E-001  6.983832874681315E-001  7.071678678063378E-001
 7.160629445626343E-001  7.250699076108589E-001  7.341901643073139E-001  7.434251397106645E-001
 7.527762768046039E-001  7.622450367233307E-001  7.718328989798436E-001  7.815413616971284E-001
 7.913719418422379E-001  8.013261754633176E-001  8.114056179296257E-001  8.216118441745515E-001
 8.319464489417117E-001  8.424110470341288E-001  8.530072735665420E-001  8.637367842209083E-001
 8.746012555050938E-001  8.856023850148419E-001  8.967418916990223E-001  9.080215161282147E-001
 9.194430207666877E-001  9.310081902477754E-001  9.427188316527401E-001  9.545767747931284E-001
 9.665838724966782E-001  9.787420008968374E-001  9.910530597259011E-001  1.003518972611860E+000
 1.016141687378967E+000  1.028923176352081E+000  1.041865436664862E+000  1.054970490571812E+000
 1.068240385764268E+000  1.081677195690354E+000  1.095283019878953E+000  1.109059984267782E+000
 1.123010241535550E+000  1.137135971438340E+000  1.151439381150191E+000  1.165922705607966E+000
 1.180588207860582E+000  1.195438179422600E+000  1.210474940632290E+000  1.225700841014187E+000
 1.241118259646198E+000  1.256729605531355E+000  1.272537317974211E+000  1.288543866961998E+000
 1.304751753550562E+000  1.321163510255155E+000  1.337781701446155E+000  1.354608923749742E+000
 1.371647806453638E+000  1.388901011917934E+000  1.406371235991081E+000  1.424061208431138E+000
 1.441973693332286E+000  1.460111489556734E+000  1.478477431172049E+000  1.497074387893967E+000
 1.515905265534818E+000  1.534973006457539E+000  1.554280590035446E+000  1.573831033117757E+000
 1.593627390500974E+000  1.613672755406220E+000  1.633970259962538E+000  1.654523075696313E+000
 1.675334414026822E+000  1.696407526768015E+000  1.717745706636635E+000  1.739352287766696E+000
 1.761230646230459E+000  1.783384200565951E+000  1.805816412311102E+000  1.828530786544641E+000
 1.851530872433750E+000  1.874820263788645E+000  1.898402599624112E+000  1.922281564728096E+000
 1.946460890237486E+000  1.970944354221076E+000  1.995735782269932E+000  2.020839048095126E+000
 2.046258074133011E+000  2.071996832158127E+000  2.098059343903774E+000  2.124449681690442E+000
 2.151171969062104E+000  2.178230381430521E+000  2.205629146727685E+000  2.233372546066408E+000
 2.261464914409286E+000  2.289910641246030E+000  2.318714171279325E+000  2.347880005119347E+000
 2.377412699986963E+000  2.407316870425836E+000  2.437597189023441E+000  2.468258387141158E+000
 2.499305255653580E+000  2.530742645697070E+000  2.562575469427785E+000  2.594808700789204E+000
 2.627447376289295E+000  2.660496595787520E+000  2.693961523291654E+000  2.727847387764710E+000
 2.762159483941957E+000  2.796903173158223E+000  2.832083884185642E+000  2.867707114081882E+000
 2.903778429049091E+000  2.940303465303627E+000  2.977287929956706E+000  3.014737601906186E+000
 3.052658332739489E+000  3.091056047647964E+000  3.129936746352692E+000  3.169306504041938E+000
 3.209171472320450E+000  3.249537880170617E+000  3.290412034925796E+000  3.331800323255834E+000
 3.373709212164975E+000  3.416145250002388E+000  3.459115067485309E+000  3.502625378735148E+000
 3.546682982326568E+000  3.591294762349753E+000  3.636467689486107E+000  3.682208822097389E+000
 3.728525307328634E+000  3.775424382224900E+000  3.822913374862043E+000  3.870999705491792E+000
 3.919690887701128E+000  3.968994529586340E+000  4.018918334941789E+000  4.069470104463618E+000
 4.120657736968679E+000  4.172489230628677E+000  4.224972684219955E+000  4.278116298388925E+000
 4.331928376933404E+000  4.386417328100165E+000  4.441591665898668E+000  4.497460011431457E+000
 4.554031094241194E+000  4.611313753674645E+000  4.669316940263908E+000  4.728049717124877E+000
 4.787521261373438E+000  4.847740865559387E+000  4.908717939118374E+000  4.970462009842223E+000
 5.032982725367584E+000  5.096289854683467E+000  5.160393289657635E+000  5.225303046582205E+000
 5.291029267738773E+000  5.357582222983100E+000  5.424972311349853E+000  5.493210062677456E+000
 5.562306139253366E+000  5.632271337480144E+000  5.703116589562337E+000  5.774852965214731E+000
 5.847491673391979E+000  5.921044064039999E+000  5.995521629869494E+000  6.070936008151628E+000
 6.147298982536451E+000  6.224622484894083E+000  6.302918597179063E+000  6.382199553318250E+000
 6.462477741122317E+000  6.543765704221448E+000  6.626076144025269E+000  6.709421921707440E+000
 6.793816060215314E+000  6.879271746304711E+000  6.965802332600455E+000  7.053421339682716E+000
 7.142142458199586E+000  7.231979551006364E+000  7.322946655331552E+000  7.415057984970285E+000
 7.508327932505235E+000  7.602771071555440E+000  7.698402159053544E+000  7.795236137551509E+000
 7.893288137555496E+000  7.992573479890011E+000  8.093107678091760E+000  8.194906440833783E+000
 8.297985674379838E+000  8.402361485069896E+000  8.508050181836749E+000  8.615068278754263E+000
 8.723432497617839E+000  8.833159770557115E+000  8.944267242681741E+000  9.056772274760307E+000
 9.170692445932934E+000  9.286045556458173E+000  9.402849630494199E+000  9.521122918915236E+000
 9.640883902163244E+000  9.762151293135480E+000  9.884944040108534E+000  1.000928132969892E+001
 1.013518258986110E+001  1.026266749292316E+001  1.039175595866053E+001  1.052246815740865E+001
 1.065482451321448E+001  1.078884570702790E+001  1.092455267993315E+001  1.106196663642079E+001
 1.120110904770113E+001  1.134200165505899E+001  1.148466647325094E+001  1.162912579394509E+001
 1.177540218920416E+001  1.192351851501256E+001  1.207349791484749E+001  1.222536382329534E+001
 1.237913996971330E+001  1.253485038193706E+001  1.269251939003537E+001  1.285217163011148E+001
 1.301383204815274E+001  1.317752590392841E+001  1.334327877493641E+001  1.351111656040014E+001
 1.368106548531499E+001  1.385315210454626E+001  1.402740330697834E+001  1.420384631971609E+001
 1.438250871233928E+001  1.456341840121018E+001  1.474660365383577E+001  1.493209309328450E+001
 1.511991570265861E+001  1.531010082962300E+001  1.550267819099063E+001  1.569767787736604E+001
 1.589513035784699E+001  1.609506648478523E+001  1.629751749860740E+001  1.650251503269627E+001
 1.671009111833361E+001  1.692027818970518E+001  1.713310908896842E+001  1.734861707138443E+001
 1.756683581051385E+001  1.778779940347867E+001  1.801154237628987E+001  1.823809968924210E+001
 1.846750674237651E+001  1.869979938101182E+001  1.893501390134545E+001  1.917318705612478E+001
 1.941435606038975E+001  1.965855859728800E+001  1.990583282396270E+001  2.015621737751487E+001
 2.040975138104045E+001  2.066647444974326E+001  2.092642669712513E+001  2.118964874125354E+001
 2.145618171110845E+001  2.172606725300869E+001  2.199934753711921E+001  2.227606526404046E+001
 2.255626367148019E+001  2.283998654100966E+001  2.312727820490451E+001  2.341818355307166E+001
 2.371274804006368E+001  2.401101769218087E+001  2.431303911466327E+001  2.461885949897263E+001
 2.492852663016613E+001  2.524208889436311E+001  2.555959528630523E+001  2.588109541701223E+001
 2.620663952153368E+001  2.653627846679814E+001  2.687006375956157E+001  2.720804755445495E+001
 2.755028266213392E+001  2.789682255753038E+001  2.824772138820793E+001  2.860303398282288E+001
 2.896281585969091E+001  2.932712323546233E+001  2.969601303390584E+001  3.006954289480285E+001
 3.044777118295418E+001  3.083075699729928E+001  3.121856018015086E+001  3.161124132654530E+001
 3.200886179371052E+001  3.241148371065361E+001  3.281916998786810E+001  3.323198432716432E+001
 3.364999123162271E+001  3.407325601567242E+001  3.450184481529723E+001  3.493582459836891E+001
 3.537526317511156E+001  3.582022920869694E+001  3.627079222597292E+001  3.672702262832778E+001
 3.718899170268995E+001  3.765677163266727E+001  3.813043550982555E+001  3.861005734510915E+001
 3.909571208040575E+001  3.958747560025570E+001  4.008542474370955E+001  4.058963731633408E+001
 4.110019210236948E+001  4.161716887703995E+001  4.214064841901816E+001  4.267071252304766E+001
 4.320744401272320E+001  4.375092675343188E+001  4.430124566545782E+001  4.485848673725049E+001
 4.542273703886115E+001  4.599408473554749E+001  4.657261910154937E+001  4.715843053403869E+001
 4.775161056724343E+001  4.835225188675071E+001  4.896044834398881E+001  4.957629497089137E+001
 5.019988799474697E+001  5.083132485323413E+001  5.147070420964675E+001  5.211812596831017E+001