
     Program PWSCF v.7.0 starts on 12Jan2023 at 12:38:36 

     This program is part of the open-source Quantum ESPRESSO suite
     for quantum simulation of materials; please cite
         "P. Giannozzi et al., J. Phys.:Condens. Matter 21 395502 (2009);
         "P. Giannozzi et al., J. Phys.:Condens. Matter 29 465901 (2017);
         "P. Giannozzi et al., J. Chem. Phys. 152 154105 (2020);
          URL http://www.quantum-espresso.org", 
     in publications or presentations arising from this work. More details at
     http://www.quantum-espresso.org/quote

     Parallel version (MPI & OpenMP), running on      32 processor cores
     Number of MPI processes:                16
     Threads/MPI process:                     2

     MPI processes distributed on     1 nodes
     R & G space division:  proc/nbgrp/npool/nimage =      16
     107419 MiB available memory on the printing compute node when the environment starts

     Reading input from kpoints_12x12x3-nbnds_100.in

     Current dimensions of program PWSCF are:
     Max number of different atomic species (ntypx) = 10
     Max number of k-points (npk) =  40000
     Max angular momentum in pseudopotentials (lmaxx) =  4

     Atomic positions and unit cell read from directory:
     /mnt/dalessandro-jobid_15852/kpoints_12x12x3-nbnds_100.save/
     Atomic positions from file used, from input discarded

Error reading attribute index: expected integer, found *

     Subspace diagonalization in iterative solution of the eigenvalue problem:
     a serial algorithm will be used


     Parallelization info
     --------------------
     sticks:   dense  smooth     PW     G-vecs:    dense   smooth      PW
     Min          32      32     10                 2414     2414     398
     Max          33      33     11                 2427     2427     407
     Sum         517     517    163                38691    38691    6439

     Using Slab Decomposition



     bravais-lattice index     =            4
     lattice parameter (alat)  =       6.1983  a.u.
     unit-cell volume          =     814.6027 (a.u.)^3
     number of atoms/cell      =            6
     number of atomic types    =            2
     number of electrons       =        52.00
     number of Kohn-Sham states=          100
     kinetic-energy cutoff     =      50.0000  Ry
     charge density cutoff     =     200.0000  Ry
     Exchange-correlation= PBE
                           (   1   4   3   4   0   0   0)
     Non magnetic calculation with spin-orbit


     celldm(1)=   6.198302  celldm(2)=   0.000000  celldm(3)=   3.950000
     celldm(4)=   0.000000  celldm(5)=   0.000000  celldm(6)=   0.000000

     crystal axes: (cart. coord. in units of alat)
               a(1) = (   1.000000   0.000000   0.000000 )  
               a(2) = (  -0.500000   0.866025   0.000000 )  
               a(3) = (   0.000000   0.000000   3.950000 )  

     reciprocal axes: (cart. coord. in units 2 pi/alat)
               b(1) = (  1.000000  0.577350 -0.000000 )  
               b(2) = (  0.000000  1.154701  0.000000 )  
               b(3) = (  0.000000 -0.000000  0.253165 )  


     PseudoPot. # 1 for Se read from file:
     ../pseudos/Se_FR.upf
     MD5 check sum: 17cce7158b1186ce2ee0c8f031b8f868
     Pseudo is Norm-conserving, Zval =  6.0
     Generated using ONCVPSP code by D. R. Hamann
     Using radial grid of  602 points, 10 beta functions with: 
                l(1) =   0
                l(2) =   0
                l(3) =   1
                l(4) =   1
                l(5) =   1
                l(6) =   1
                l(7) =   2
                l(8) =   2
                l(9) =   2
               l(10) =   2

     PseudoPot. # 2 for W  read from file:
     ../pseudos/W_FR.upf
     MD5 check sum: 75b1d432d85d028982bb81b068264ebf
     Pseudo is Norm-conserving + core correction, Zval = 14.0
     Generated using ONCVPSP code by D. R. Hamann
     Using radial grid of 1396 points, 14 beta functions with: 
                l(1) =   0
                l(2) =   0
                l(3) =   1
                l(4) =   1
                l(5) =   1
                l(6) =   1
                l(7) =   2
                l(8) =   2
                l(9) =   2
               l(10) =   2
               l(11) =   3
               l(12) =   3
               l(13) =   3
               l(14) =   3

     atomic species   valence    mass     pseudopotential
        Se             6.00    32.06500     Se( 1.00)
        W             14.00   183.84000     W ( 1.00)

     12 Sym. Ops., with inversion, found


                                    s                        frac. trans.

      isym =  1     identity                                     

 cryst.   s( 1) = (     1          0          0      )
                  (     0          1          0      )
                  (     0          0          1      )

 cart.    s( 1) = (  1.0000000  0.0000000  0.0000000 )
                  (  0.0000000  1.0000000  0.0000000 )
                  (  0.0000000  0.0000000  1.0000000 )


      isym =  2     180 deg rotation - cart. axis [1,0,0]        

 cryst.   s( 2) = (     1          0          0      )
                  (    -1         -1          0      )
                  (     0          0         -1      )

 cart.    s( 2) = (  1.0000000  0.0000000  0.0000000 )
                  (  0.0000000 -1.0000000  0.0000000 )
                  (  0.0000000  0.0000000 -1.0000000 )


      isym =  3     120 deg rotation - cryst. axis [0,0,1]       

 cryst.   s( 3) = (     0          1          0      )
                  (    -1         -1          0      )
                  (     0          0          1      )

 cart.    s( 3) = ( -0.5000000 -0.8660254  0.0000000 )
                  (  0.8660254 -0.5000000  0.0000000 )
                  (  0.0000000  0.0000000  1.0000000 )


      isym =  4     120 deg rotation - cryst. axis [0,0,-1]      

 cryst.   s( 4) = (    -1         -1          0      )
                  (     1          0          0      )
                  (     0          0          1      )

 cart.    s( 4) = ( -0.5000000  0.8660254  0.0000000 )
                  ( -0.8660254 -0.5000000  0.0000000 )
                  (  0.0000000  0.0000000  1.0000000 )


      isym =  5     180 deg rotation - cryst. axis [0,1,0]       

 cryst.   s( 5) = (    -1         -1          0      )
                  (     0          1          0      )
                  (     0          0         -1      )

 cart.    s( 5) = ( -0.5000000 -0.8660254  0.0000000 )
                  ( -0.8660254  0.5000000  0.0000000 )
                  (  0.0000000  0.0000000 -1.0000000 )


      isym =  6     180 deg rotation - cryst. axis [1,1,0]       

 cryst.   s( 6) = (     0          1          0      )
                  (     1          0          0      )
                  (     0          0         -1      )

 cart.    s( 6) = ( -0.5000000  0.8660254  0.0000000 )
                  (  0.8660254  0.5000000  0.0000000 )
                  (  0.0000000  0.0000000 -1.0000000 )


      isym =  7     inversion                                    

 cryst.   s( 7) = (    -1          0          0      )
                  (     0         -1          0      )
                  (     0          0         -1      )

 cart.    s( 7) = ( -1.0000000  0.0000000  0.0000000 )
                  (  0.0000000 -1.0000000  0.0000000 )
                  (  0.0000000  0.0000000 -1.0000000 )


      isym =  8     inv. 180 deg rotation - cart. axis [1,0,0]   

 cryst.   s( 8) = (    -1          0          0      )
                  (     1          1          0      )
                  (     0          0          1      )

 cart.    s( 8) = ( -1.0000000  0.0000000  0.0000000 )
                  (  0.0000000  1.0000000  0.0000000 )
                  (  0.0000000  0.0000000  1.0000000 )


      isym =  9     inv. 120 deg rotation - cryst. axis [0,0,1]  

 cryst.   s( 9) = (     0         -1          0      )
                  (     1          1          0      )
                  (     0          0         -1      )

 cart.    s( 9) = (  0.5000000  0.8660254  0.0000000 )
                  ( -0.8660254  0.5000000  0.0000000 )
                  (  0.0000000  0.0000000 -1.0000000 )


      isym = 10     inv. 120 deg rotation - cryst. axis [0,0,-1] 

 cryst.   s(10) = (     1          1          0      )
                  (    -1          0          0      )
                  (     0          0         -1      )

 cart.    s(10) = (  0.5000000 -0.8660254  0.0000000 )
                  (  0.8660254  0.5000000  0.0000000 )
                  (  0.0000000  0.0000000 -1.0000000 )


      isym = 11     inv. 180 deg rotation - cryst. axis [0,1,0]  

 cryst.   s(11) = (     1          1          0      )
                  (     0         -1          0      )
                  (     0          0          1      )

 cart.    s(11) = (  0.5000000  0.8660254  0.0000000 )
                  (  0.8660254 -0.5000000  0.0000000 )
                  (  0.0000000  0.0000000  1.0000000 )


      isym = 12     inv. 180 deg rotation - cryst. axis [1,1,0]  

 cryst.   s(12) = (     0         -1          0      )
                  (    -1          0          0      )
                  (     0          0          1      )

 cart.    s(12) = (  0.5000000 -0.8660254  0.0000000 )
                  ( -0.8660254 -0.5000000  0.0000000 )
                  (  0.0000000  0.0000000  1.0000000 )


     double point group D_3d (-3m) 
     there are 12 classes and  6 irreducible representations
     the character table:

       E     -E    2C3   -2C3  3C2'  -3C2' i     -i    2S6   -2S6  3s_v  -3s_v
                                                                              
G_4+   2.00 -2.00  1.00 -1.00  0.00  0.00  2.00 -2.00  1.00 -1.00  0.00  0.00
G_5+   1.00 -1.00 -1.00  1.00  0.00  0.00  1.00 -1.00 -1.00  1.00  0.00  0.00
G_6+   1.00 -1.00 -1.00  1.00  0.00  0.00  1.00 -1.00 -1.00  1.00  0.00  0.00
G_4-   2.00 -2.00  1.00 -1.00  0.00  0.00 -2.00  2.00 -1.00  1.00  0.00  0.00
G_5-   1.00 -1.00 -1.00  1.00  0.00  0.00 -1.00  1.00  1.00 -1.00  0.00  0.00
G_6-   1.00 -1.00 -1.00  1.00  0.00  0.00 -1.00  1.00  1.00 -1.00  0.00  0.00

     imaginary part

       E     -E    2C3   -2C3  3C2'  -3C2' i     -i    2S6   -2S6  3s_v  -3s_v
                                                                              
G_4+   0.00  0.00  0.00  0.00  0.00  0.00  0.00  0.00  0.00  0.00  0.00  0.00
G_5+   0.00  0.00  0.00  0.00  1.00 -1.00  0.00  0.00  0.00  0.00  1.00 -1.00
G_6+   0.00  0.00  0.00  0.00 -1.00  1.00  0.00  0.00  0.00  0.00 -1.00  1.00
G_4-   0.00  0.00  0.00  0.00  0.00  0.00  0.00  0.00  0.00  0.00  0.00  0.00
G_5-   0.00  0.00  0.00  0.00  1.00 -1.00  0.00  0.00  0.00  0.00 -1.00  1.00
G_6-   0.00  0.00  0.00  0.00 -1.00  1.00  0.00  0.00  0.00  0.00  1.00 -1.00

     the symmetry operations in each class and the name of the first element:

     E             1
          identity                                               
     -E           -1
          identity E                                             
     2C3           3    4
          120 deg rotation - cryst. axis [0,0,1]                 
     -2C3         -3   -4
          120 deg rotation - cryst. axis [0,0,1] E               
     3C2'          5    6   -2
          180 deg rotation - cryst. axis [0,1,0]                 
     -3C2'         2   -5   -6
          180 deg rotation - cart. axis [1,0,0]                  
     i             7
          inversion                                              
     -i           -7
          inversion E                                            
     2S6           9   10
          inv. 120 deg rotation - cryst. axis [0,0,1]            
     -2S6         -9  -10
          inv. 120 deg rotation - cryst. axis [0,0,1] E          
     3s_v         11   12   -8
          inv. 180 deg rotation - cryst. axis [0,1,0]            
     -3s_v         8  -11  -12
          inv. 180 deg rotation - cart. axis [1,0,0]             

   Cartesian axes

     site n.     atom                  positions (alat units)
         1           W   tau(   1) = (  -0.0000005   0.5773506   0.9875000  )
         2           W   tau(   2) = (   0.5000005   0.2886748   2.9625000  )
         3           Se  tau(   3) = (  -0.0000005   0.5773506   2.4535365  )
         4           Se  tau(   4) = (   0.5000005   0.2886748   0.4785365  )
         5           Se  tau(   5) = (  -0.0000005   0.5773506   3.4714635  )
         6           Se  tau(   6) = (   0.5000005   0.2886748   1.4964635  )

   Crystallographic axes

     site n.     atom                  positions (cryst. coord.)
         1           W   tau(   1) = (  0.3333330  0.6666670  0.2500000  )
         2           W   tau(   2) = (  0.6666670  0.3333330  0.7500000  )
         3           Se  tau(   3) = (  0.3333330  0.6666670  0.6211485  )
         4           Se  tau(   4) = (  0.6666670  0.3333330  0.1211485  )
         5           Se  tau(   5) = (  0.3333330  0.6666670  0.8788515  )
         6           Se  tau(   6) = (  0.6666670  0.3333330  0.3788515  )

     number of k points=    50
                       cart. coord. in units 2pi/alat
        k(    1) = (   0.0000000   0.0000000   0.0000000), wk =   0.0023148
        k(    2) = (   0.0000000   0.0000000   0.0843882), wk =   0.0046296
        k(    3) = (   0.0000000   0.0962250   0.0000000), wk =   0.0138889
        k(    4) = (   0.0000000   0.0962250   0.0843882), wk =   0.0138889
        k(    5) = (   0.0000000   0.1924501   0.0000000), wk =   0.0138889
        k(    6) = (   0.0000000   0.1924501   0.0843882), wk =   0.0138889
        k(    7) = (   0.0000000   0.2886751   0.0000000), wk =   0.0138889
        k(    8) = (   0.0000000   0.2886751   0.0843882), wk =   0.0138889
        k(    9) = (   0.0000000   0.3849002   0.0000000), wk =   0.0138889
        k(   10) = (   0.0000000   0.3849002   0.0843882), wk =   0.0138889
        k(   11) = (   0.0000000   0.4811252   0.0000000), wk =   0.0138889
        k(   12) = (   0.0000000   0.4811252   0.0843882), wk =   0.0138889
        k(   13) = (   0.0000000  -0.5773503   0.0000000), wk =   0.0069444
        k(   14) = (   0.0000000  -0.5773503   0.0843882), wk =   0.0138889
        k(   15) = (   0.0833333   0.1443376   0.0000000), wk =   0.0138889
        k(   16) = (   0.0833333   0.1443376   0.0843882), wk =   0.0277778
        k(   17) = (   0.0833333   0.2405626   0.0000000), wk =   0.0277778
        k(   18) = (   0.0833333   0.2405626   0.0843882), wk =   0.0277778
        k(   19) = (   0.0833333   0.3367877   0.0000000), wk =   0.0277778
        k(   20) = (   0.0833333   0.3367877   0.0843882), wk =   0.0277778
        k(   21) = (   0.0833333   0.4330127   0.0000000), wk =   0.0277778
        k(   22) = (   0.0833333   0.4330127   0.0843882), wk =   0.0277778
        k(   23) = (   0.0833333   0.5292377   0.0000000), wk =   0.0277778
        k(   24) = (   0.0833333   0.5292377   0.0843882), wk =   0.0277778
        k(   25) = (   0.1666667   0.2886751   0.0000000), wk =   0.0138889
        k(   26) = (   0.1666667   0.2886751   0.0843882), wk =   0.0277778
        k(   27) = (   0.1666667   0.3849002   0.0000000), wk =   0.0277778
        k(   28) = (   0.1666667   0.3849002   0.0843882), wk =   0.0277778
        k(   29) = (   0.1666667   0.4811252   0.0000000), wk =   0.0277778
        k(   30) = (   0.1666667   0.4811252   0.0843882), wk =   0.0277778
        k(   31) = (   0.1666667   0.5773503   0.0000000), wk =   0.0138889
        k(   32) = (   0.1666667   0.5773503   0.0843882), wk =   0.0277778
        k(   33) = (   0.2500000   0.4330127   0.0000000), wk =   0.0138889
        k(   34) = (   0.2500000   0.4330127   0.0843882), wk =   0.0277778
        k(   35) = (   0.2500000   0.5292377   0.0000000), wk =   0.0277778
        k(   36) = (   0.2500000   0.5292377   0.0843882), wk =   0.0277778
        k(   37) = (   0.3333333   0.5773503   0.0000000), wk =   0.0046296
        k(   38) = (   0.3333333   0.5773503   0.0843882), wk =   0.0092593
        k(   39) = (   0.0000000   0.0962250  -0.0843882), wk =   0.0138889
        k(   40) = (   0.0000000   0.1924501  -0.0843882), wk =   0.0138889
        k(   41) = (   0.0000000   0.2886751  -0.0843882), wk =   0.0138889
        k(   42) = (   0.0000000   0.3849002  -0.0843882), wk =   0.0138889
        k(   43) = (   0.0000000   0.4811252  -0.0843882), wk =   0.0138889
        k(   44) = (  -0.0833333   0.2405626  -0.0843882), wk =   0.0277778
        k(   45) = (  -0.0833333   0.3367877  -0.0843882), wk =   0.0277778
        k(   46) = (  -0.0833333   0.4330127  -0.0843882), wk =   0.0277778
        k(   47) = (  -0.0833333   0.5292377  -0.0843882), wk =   0.0277778
        k(   48) = (  -0.1666667   0.3849002  -0.0843882), wk =   0.0277778
        k(   49) = (  -0.1666667   0.4811252  -0.0843882), wk =   0.0277778
        k(   50) = (  -0.2500000   0.5292377  -0.0843882), wk =   0.0277778

                       cryst. coord.
        k(    1) = (   0.0000000   0.0000000   0.0000000), wk =   0.0023148
        k(    2) = (   0.0000000   0.0000000   0.3333333), wk =   0.0046296
        k(    3) = (   0.0000000   0.0833333   0.0000000), wk =   0.0138889
        k(    4) = (   0.0000000   0.0833333   0.3333333), wk =   0.0138889
        k(    5) = (   0.0000000   0.1666667   0.0000000), wk =   0.0138889
        k(    6) = (   0.0000000   0.1666667   0.3333333), wk =   0.0138889
        k(    7) = (   0.0000000   0.2500000   0.0000000), wk =   0.0138889
        k(    8) = (   0.0000000   0.2500000   0.3333333), wk =   0.0138889
        k(    9) = (   0.0000000   0.3333333   0.0000000), wk =   0.0138889
        k(   10) = (   0.0000000   0.3333333   0.3333333), wk =   0.0138889
        k(   11) = (   0.0000000   0.4166667   0.0000000), wk =   0.0138889
        k(   12) = (   0.0000000   0.4166667   0.3333333), wk =   0.0138889
        k(   13) = (   0.0000000  -0.5000000   0.0000000), wk =   0.0069444
        k(   14) = (   0.0000000  -0.5000000   0.3333333), wk =   0.0138889
        k(   15) = (   0.0833333   0.0833333   0.0000000), wk =   0.0138889
        k(   16) = (   0.0833333   0.0833333   0.3333333), wk =   0.0277778
        k(   17) = (   0.0833333   0.1666667   0.0000000), wk =   0.0277778
        k(   18) = (   0.0833333   0.1666667   0.3333333), wk =   0.0277778
        k(   19) = (   0.0833333   0.2500000   0.0000000), wk =   0.0277778
        k(   20) = (   0.0833333   0.2500000   0.3333333), wk =   0.0277778
        k(   21) = (   0.0833333   0.3333333   0.0000000), wk =   0.0277778
        k(   22) = (   0.0833333   0.3333333   0.3333333), wk =   0.0277778
        k(   23) = (   0.0833333   0.4166667   0.0000000), wk =   0.0277778
        k(   24) = (   0.0833333   0.4166667   0.3333333), wk =   0.0277778
        k(   25) = (   0.1666667   0.1666667   0.0000000), wk =   0.0138889
        k(   26) = (   0.1666667   0.1666667   0.3333333), wk =   0.0277778
        k(   27) = (   0.1666667   0.2500000   0.0000000), wk =   0.0277778
        k(   28) = (   0.1666667   0.2500000   0.3333333), wk =   0.0277778
        k(   29) = (   0.1666667   0.3333333   0.0000000), wk =   0.0277778
        k(   30) = (   0.1666667   0.3333333   0.3333333), wk =   0.0277778
        k(   31) = (   0.1666667   0.4166667   0.0000000), wk =   0.0138889
        k(   32) = (   0.1666667   0.4166667   0.3333333), wk =   0.0277778
        k(   33) = (   0.2500000   0.2500000   0.0000000), wk =   0.0138889
        k(   34) = (   0.2500000   0.2500000   0.3333333), wk =   0.0277778
        k(   35) = (   0.2500000   0.3333333   0.0000000), wk =   0.0277778
        k(   36) = (   0.2500000   0.3333333   0.3333333), wk =   0.0277778
        k(   37) = (   0.3333333   0.3333333   0.0000000), wk =   0.0046296
        k(   38) = (   0.3333333   0.3333333   0.3333333), wk =   0.0092593
        k(   39) = (   0.0000000   0.0833333  -0.3333333), wk =   0.0138889
        k(   40) = (   0.0000000   0.1666667  -0.3333333), wk =   0.0138889
        k(   41) = (   0.0000000   0.2500000  -0.3333333), wk =   0.0138889
        k(   42) = (   0.0000000   0.3333333  -0.3333333), wk =   0.0138889
        k(   43) = (   0.0000000   0.4166667  -0.3333333), wk =   0.0138889
        k(   44) = (  -0.0833333   0.2500000  -0.3333333), wk =   0.0277778
        k(   45) = (  -0.0833333   0.3333333  -0.3333333), wk =   0.0277778
        k(   46) = (  -0.0833333   0.4166667  -0.3333333), wk =   0.0277778
        k(   47) = (  -0.0833333   0.5000000  -0.3333333), wk =   0.0277778
        k(   48) = (  -0.1666667   0.4166667  -0.3333333), wk =   0.0277778
        k(   49) = (  -0.1666667   0.5000000  -0.3333333), wk =   0.0277778
        k(   50) = (  -0.2500000   0.5833333  -0.3333333), wk =   0.0277778

     Dense  grid:    38691 G-vectors     FFT dimensions: (  27,  27, 120)

     Dynamical RAM for                 wfc:       0.93 MB

     Dynamical RAM for     wfc (w. buffer):       0.93 MB

     Dynamical RAM for           str. fact:       0.07 MB

     Dynamical RAM for           local pot:       0.00 MB

     Dynamical RAM for          nlocal pot:       1.21 MB

     Dynamical RAM for                qrad:      15.90 MB

     Dynamical RAM for          rho,v,vnew:       0.98 MB

     Dynamical RAM for           G-vectors:       0.16 MB

     Dynamical RAM for          h,s,v(r/c):       1.83 MB

     Dynamical RAM for          <psi|beta>:       0.79 MB

     Dynamical RAM for                 psi:       1.86 MB

     Dynamical RAM for                hpsi:       1.86 MB

     Dynamical RAM for      wfcinit/wfcrot:       1.62 MB

     Estimated static dynamical RAM per process >      19.71 MB

     Estimated max dynamical RAM per process >      26.05 MB

     Estimated total dynamical RAM >     416.74 MB

     The potential is recalculated from file :
     /mnt/dalessandro-jobid_15852/kpoints_12x12x3-nbnds_100.save/charge-density

     Starting wfcs are   40 randomized atomic wfcs +   60 random wfcs

     Band Structure Calculation
     Davidson diagonalization with overlap

     Computing kpt #:     1  of    50
     total cpu time spent up to now is        2.1 secs

     Computing kpt #:     2  of    50
     total cpu time spent up to now is        3.5 secs

     Computing kpt #:     3  of    50
     total cpu time spent up to now is        4.9 secs

     Computing kpt #:     4  of    50
     total cpu time spent up to now is        6.3 secs

     Computing kpt #:     5  of    50
     total cpu time spent up to now is        7.7 secs

     Computing kpt #:     6  of    50
     total cpu time spent up to now is        9.1 secs

     Computing kpt #:     7  of    50
     total cpu time spent up to now is       10.6 secs

     Computing kpt #:     8  of    50
     total cpu time spent up to now is       12.0 secs

     Computing kpt #:     9  of    50
     total cpu time spent up to now is       13.4 secs

     Computing kpt #:    10  of    50
     total cpu time spent up to now is       14.8 secs

     Computing kpt #:    11  of    50
     total cpu time spent up to now is       16.1 secs

     Computing kpt #:    12  of    50
     total cpu time spent up to now is       17.4 secs

     Computing kpt #:    13  of    50
     total cpu time spent up to now is       18.7 secs

     Computing kpt #:    14  of    50
     total cpu time spent up to now is       20.0 secs

     Computing kpt #:    15  of    50
     total cpu time spent up to now is       21.4 secs

     Computing kpt #:    16  of    50
     total cpu time spent up to now is       22.8 secs

     Computing kpt #:    17  of    50
     total cpu time spent up to now is       24.2 secs

     Computing kpt #:    18  of    50
     total cpu time spent up to now is       25.7 secs

     Computing kpt #:    19  of    50
     total cpu time spent up to now is       27.1 secs

     Computing kpt #:    20  of    50
     total cpu time spent up to now is       28.5 secs

     Computing kpt #:    21  of    50
     total cpu time spent up to now is       29.9 secs

     Computing kpt #:    22  of    50
     total cpu time spent up to now is       31.4 secs

     Computing kpt #:    23  of    50
     total cpu time spent up to now is       32.7 secs

     Computing kpt #:    24  of    50
     total cpu time spent up to now is       34.0 secs

     Computing kpt #:    25  of    50
     total cpu time spent up to now is       35.4 secs

     Computing kpt #:    26  of    50
     total cpu time spent up to now is       36.8 secs

     Computing kpt #:    27  of    50
     total cpu time spent up to now is       38.3 secs

     Computing kpt #:    28  of    50
     total cpu time spent up to now is       39.7 secs

     Computing kpt #:    29  of    50
     total cpu time spent up to now is       41.1 secs

     Computing kpt #:    30  of    50
     total cpu time spent up to now is       42.4 secs

     Computing kpt #:    31  of    50
     total cpu time spent up to now is       43.8 secs

     Computing kpt #:    32  of    50
     total cpu time spent up to now is       45.1 secs

     Computing kpt #:    33  of    50
     total cpu time spent up to now is       46.6 secs

     Computing kpt #:    34  of    50
     total cpu time spent up to now is       48.0 secs

     Computing kpt #:    35  of    50
     total cpu time spent up to now is       49.3 secs

     Computing kpt #:    36  of    50
     total cpu time spent up to now is       50.7 secs

     Computing kpt #:    37  of    50
     total cpu time spent up to now is       52.1 secs

     Computing kpt #:    38  of    50
     total cpu time spent up to now is       53.4 secs

     Computing kpt #:    39  of    50
     total cpu time spent up to now is       54.8 secs

     Computing kpt #:    40  of    50
     total cpu time spent up to now is       56.2 secs

     Computing kpt #:    41  of    50
     total cpu time spent up to now is       57.6 secs

     Computing kpt #:    42  of    50
     total cpu time spent up to now is       59.0 secs

     Computing kpt #:    43  of    50
     total cpu time spent up to now is       60.3 secs

     Computing kpt #:    44  of    50
     total cpu time spent up to now is       61.7 secs

     Computing kpt #:    45  of    50
     total cpu time spent up to now is       63.1 secs

     Computing kpt #:    46  of    50
     total cpu time spent up to now is       64.6 secs

     Computing kpt #:    47  of    50
     total cpu time spent up to now is       65.9 secs

     Computing kpt #:    48  of    50
     total cpu time spent up to now is       67.4 secs

     Computing kpt #:    49  of    50
     total cpu time spent up to now is       68.8 secs

     Computing kpt #:    50  of    50
     total cpu time spent up to now is       70.1 secs

     ethr =  1.92E-09,  avg # of iterations = 34.0

     total cpu time spent up to now is       70.1 secs

     End of band structure calculation

          k = 0.0000 0.0000 0.0000 (  4801 PWs)   bands (ev):

   -62.9083 -62.9083 -62.9081 -62.9081 -34.3013 -34.3013 -34.3010 -34.3010
   -24.5790 -24.5790 -24.5786 -24.5786 -24.4499 -24.4499 -24.4493 -24.4493
    -4.1523  -4.1523  -3.9017  -3.9017  -2.9571  -2.9571  -2.5357  -2.5357
     4.0005   4.0005   5.1054   5.1054   7.5042   7.5042   8.3735   8.3735
     8.3873   8.3873   8.5970   8.5970   8.6162   8.6162   9.3778   9.3778
     9.4874   9.4874   9.8165   9.8165   9.8727   9.8727  10.0987  10.0987
    10.1762  10.1762  11.2553  11.2553  13.6887  13.6887  13.7412  13.7412
    13.9058  13.9058  13.9351  13.9351  14.0234  14.0234  14.1512  14.1512
    14.1534  14.1534  14.2991  14.2991  15.7402  15.7402  16.3841  16.3841
    18.8690  18.8690  19.3327  19.3327  19.4878  19.4878  21.1181  21.1181
    21.1272  21.1272  21.4420  21.4420  21.6365  21.6365  21.9711  21.9711
    22.2424  22.2424  23.3279  23.3279  23.4036  23.4036  23.4348  23.4348
    24.0963  24.0963  24.1536  24.1536

     occupation numbers 
     1.0000   1.0000   1.0000   1.0000   1.0000   1.0000   1.0000   1.0000
     1.0000   1.0000   1.0000   1.0000   1.0000   1.0000   1.0000   1.0000
     1.0000   1.0000   1.0000   1.0000   1.0000   1.0000   1.0000   1.0000
     1.0000   1.0000   1.0000   1.0000   1.0000   1.0000   1.0000   1.0000
     1.0000   1.0000   1.0000   1.0000   1.0000   1.0000   1.0000   1.0000
     1.0000   1.0000   1.0000   1.0000   1.0000   1.0000   1.0000   1.0000
     1.0000   1.0000   1.0000   1.0000   0.0000   0.0000   0.0000   0.0000
     0.0000   0.0000   0.0000   0.0000   0.0000   0.0000   0.0000   0.0000
     0.0000   0.0000   0.0000   0.0000   0.0000   0.0000   0.0000   0.0000
     0.0000   0.0000   0.0000   0.0000   0.0000   0.0000   0.0000   0.0000
     0.0000   0.0000   0.0000   0.0000   0.0000   0.0000   0.0000   0.0000
     0.0000   0.0000   0.0000   0.0000   0.0000   0.0000   0.0000   0.0000
     0.0000   0.0000   0.0000   0.0000

          k = 0.0000 0.0000 0.0844 (  4795 PWs)   bands (ev):

   -62.9082 -62.9082 -62.9081 -62.9081 -34.3012 -34.3012 -34.3010 -34.3010
   -24.5791 -24.5791 -24.5787 -24.5787 -24.4494 -24.4494 -24.4494 -24.4494
    -4.1018  -4.1018  -3.9799  -3.9799  -2.8382  -2.8382  -2.6310  -2.6310
     4.2179   4.2179   4.7455   4.7455   8.0169   8.0169   8.3769   8.3769
     8.3838   8.3838   8.5695   8.5695   8.6364   8.6364   9.0835   9.0835
     9.4777   9.4777   9.4901   9.4901   9.8305   9.8305   9.8586   9.8586
    10.8141  10.8141  11.1579  11.1579  13.6964  13.6964  13.7197  13.7197
    13.9305  13.9305  13.9861  13.9861  13.9967  13.9967  14.1015  14.1015
    14.1974  14.1974  14.2671  14.2671  15.9216  15.9216  16.2438  16.2438
    18.9647  18.9647  19.1958  19.1958  19.7506  19.7506  20.4856  20.4856
    21.2386  21.2386  21.4904  21.4904  21.5569  21.5569  21.8184  21.8184
    22.5419  22.5419  23.0369  23.0369  23.5588  23.5588  23.5765  23.5765
    23.9185  23.9185  23.9557  23.9557

     occupation numbers 
     1.0000   1.0000   1.0000   1.0000   1.0000   1.0000   1.0000   1.0000
     1.0000   1.0000   1.0000   1.0000   1.0000   1.0000   1.0000   1.0000
     1.0000   1.0000   1.0000   1.0000   1.0000   1.0000   1.0000   1.0000
     1.0000   1.0000   1.0000   1.0000   1.0000   1.0000   1.0000   1.0000
     1.0000   1.0000   1.0000   1.0000   1.0000   1.0000   1.0000   1.0000
     1.0000   1.0000   1.0000   1.0000   1.0000   1.0000   1.0000   1.0000
     1.0000   1.0000   1.0000   1.0000   0.0000   0.0000   0.0000   0.0000
     0.0000   0.0000   0.0000   0.0000   0.0000   0.0000   0.0000   0.0000
     0.0000   0.0000   0.0000   0.0000   0.0000   0.0000   0.0000   0.0000
     0.0000   0.0000   0.0000   0.0000   0.0000   0.0000   0.0000   0.0000
     0.0000   0.0000   0.0000   0.0000   0.0000   0.0000   0.0000   0.0000
     0.0000   0.0000   0.0000   0.0000   0.0000   0.0000   0.0000   0.0000
     0.0000   0.0000   0.0000   0.0000

          k = 0.0000 0.0962 0.0000 (  4812 PWs)   bands (ev):

   -62.9075 -62.9075 -62.9074 -62.9074 -34.3043 -34.3043 -34.3041 -34.3041
   -24.5809 -24.5809 -24.5805 -24.5805 -24.4631 -24.4631 -24.4628 -24.4628
    -4.0457  -4.0457  -3.7960  -3.7960  -2.8982  -2.8982  -2.4875  -2.4875
     4.1367   4.1367   5.2403   5.2403   7.4067   7.4067   8.1405   8.1405
     8.1632   8.1632   8.6008   8.6008   8.6250   8.6250   9.0541   9.0541
     9.3816   9.3816   9.4855   9.4855   9.7320   9.7320  10.1357  10.1357
    10.3331  10.3331  11.0747  11.0747  13.5593  13.5593  13.6361  13.6361
    13.6849  13.6849  13.8018  13.8018  13.8221  13.8221  14.0318  14.0318
    14.1334  14.1334  14.2231  14.2231  16.3652  16.3652  16.9075  16.9075
    19.4353  19.4353  19.5215  19.5215  19.9599  19.9599  20.8605  20.8605
    21.0826  21.0826  21.1560  21.1560  21.6698  21.6698  22.1610  22.1610
    22.2518  22.2518  22.5256  22.5256  22.8815  22.8815  23.3768  23.3768
    23.8603  23.8603  24.2757  24.2757

     occupation numbers 
     1.0000   1.0000   1.0000   1.0000   1.0000   1.0000   1.0000   1.0000
     1.0000   1.0000   1.0000   1.0000   1.0000   1.0000   1.0000   1.0000
     1.0000   1.0000   1.0000   1.0000   1.0000   1.0000   1.0000   1.0000
     1.0000   1.0000   1.0000   1.0000   1.0000   1.0000   1.0000   1.0000
     1.0000   1.0000   1.0000   1.0000   1.0000   1.0000   1.0000   1.0000
     1.0000   1.0000   1.0000   1.0000   1.0000   1.0000   1.0000   1.0000
     1.0000   1.0000   1.0000   1.0000   0.0000   0.0000   0.0000   0.0000
     0.0000   0.0000   0.0000   0.0000   0.0000   0.0000   0.0000   0.0000
     0.0000   0.0000   0.0000   0.0000   0.0000   0.0000   0.0000   0.0000
     0.0000   0.0000   0.0000   0.0000   0.0000   0.0000   0.0000   0.0000
     0.0000   0.0000   0.0000   0.0000   0.0000   0.0000   0.0000   0.0000
     0.0000   0.0000   0.0000   0.0000   0.0000   0.0000   0.0000   0.0000
     0.0000   0.0000   0.0000   0.0000

          k = 0.0000 0.0962 0.0844 (  4812 PWs)   bands (ev):

   -62.9075 -62.9075 -62.9075 -62.9075 -34.3042 -34.3042 -34.3042 -34.3042
   -24.5808 -24.5808 -24.5807 -24.5807 -24.4630 -24.4630 -24.4629 -24.4629
    -3.9956  -3.9956  -3.8743  -3.8743  -2.7813  -2.7813  -2.5796  -2.5796
     4.3505   4.3505   4.8746   4.8746   7.8933   7.8933   8.1461   8.1461
     8.1639   8.1639   8.5667   8.5667   8.6299   8.6299   8.8067   8.8067
     9.3775   9.3775   9.4132   9.4132   9.7254   9.7254   9.7798   9.7798
    10.7558  10.7558  11.0071  11.0071  13.5799  13.5799  13.6098  13.6098
    13.7363  13.7363  13.7923  13.7923  13.8607  13.8607  13.9605  13.9605
    14.1736  14.1736  14.2110  14.2110  16.5075  16.5075  16.7814  16.7814
    19.5139  19.5139  19.7462  19.7462  19.8103  19.8103  20.3805  20.3805
    21.0260  21.0260  21.2113  21.2113  21.7810  21.7810  22.0296  22.0296
    22.3337  22.3337  22.4648  22.4648  23.2374  23.2374  23.5595  23.5595
    23.7239  23.7239  24.0050  24.0050

     occupation numbers 
     1.0000   1.0000   1.0000   1.0000   1.0000   1.0000   1.0000   1.0000
     1.0000   1.0000   1.0000   1.0000   1.0000   1.0000   1.0000   1.0000
     1.0000   1.0000   1.0000   1.0000   1.0000   1.0000   1.0000   1.0000
     1.0000   1.0000   1.0000   1.0000   1.0000   1.0000   1.0000   1.0000
     1.0000   1.0000   1.0000   1.0000   1.0000   1.0000   1.0000   1.0000
     1.0000   1.0000   1.0000   1.0000   1.0000   1.0000   1.0000   1.0000
     1.0000   1.0000   1.0000   1.0000   0.0000   0.0000   0.0000   0.0000
     0.0000   0.0000   0.0000   0.0000   0.0000   0.0000   0.0000   0.0000
     0.0000   0.0000   0.0000   0.0000   0.0000   0.0000   0.0000   0.0000
     0.0000   0.0000   0.0000   0.0000   0.0000   0.0000   0.0000   0.0000
     0.0000   0.0000   0.0000   0.0000   0.0000   0.0000   0.0000   0.0000
     0.0000   0.0000   0.0000   0.0000   0.0000   0.0000   0.0000   0.0000
     0.0000   0.0000   0.0000   0.0000

          k = 0.0000 0.1925 0.0000 (  4836 PWs)   bands (ev):

   -62.9056 -62.9056 -62.9055 -62.9055 -34.3126 -34.3126 -34.3125 -34.3125
   -24.5887 -24.5887 -24.5884 -24.5884 -24.4964 -24.4964 -24.4961 -24.4961
    -3.7390  -3.7390  -3.4936  -3.4936  -2.7287  -2.7287  -2.3502  -2.3502
     4.5182   4.5182   5.6078   5.6078   7.1317   7.1317   7.3785   7.3785
     7.4411   7.4411   8.2908   8.2908   8.8278   8.8278   8.8696   8.8696
     9.0221   9.0221   9.0755   9.0755   9.3807   9.3807  10.0847  10.0847
    10.1780  10.1780  10.5616  10.5616  12.8583  12.8583  13.3423  13.3423
    13.4754  13.4754  13.6159  13.6159  13.7332  13.7332  13.8488  13.8488
    14.4289  14.4289  14.6161  14.6161  17.2984  17.2984  17.9261  17.9261
    19.5605  19.5605  19.9596  19.9596  20.0349  20.0349  20.4338  20.4338
    20.7323  20.7323  21.2339  21.2339  21.7412  21.7412  22.3518  22.3518
    22.3871  22.3871  22.5782  22.5782  23.0595  23.0595  23.5076  23.5076
    24.0121  24.0121  24.6937  24.6937

     occupation numbers 
     1.0000   1.0000   1.0000   1.0000   1.0000   1.0000   1.0000   1.0000
     1.0000   1.0000   1.0000   1.0000   1.0000   1.0000   1.0000   1.0000
     1.0000   1.0000   1.0000   1.0000   1.0000   1.0000   1.0000   1.0000
     1.0000   1.0000   1.0000   1.0000   1.0000   1.0000   1.0000   1.0000
     1.0000   1.0000   1.0000   1.0000   1.0000   1.0000   1.0000   1.0000
     1.0000   1.0000   1.0000   1.0000   1.0000   1.0000   1.0000   1.0000
     1.0000   1.0000   1.0000   1.0000   0.0000   0.0000   0.0000   0.0000
     0.0000   0.0000   0.0000   0.0000   0.0000   0.0000   0.0000   0.0000
     0.0000   0.0000   0.0000   0.0000   0.0000   0.0000   0.0000   0.0000
     0.0000   0.0000   0.0000   0.0000   0.0000   0.0000   0.0000   0.0000
     0.0000   0.0000   0.0000   0.0000   0.0000   0.0000   0.0000   0.0000
     0.0000   0.0000   0.0000   0.0000   0.0000   0.0000   0.0000   0.0000
     0.0000   0.0000   0.0000   0.0000

          k = 0.0000 0.1925 0.0844 (  4824 PWs)   bands (ev):

   -62.9055 -62.9055 -62.9054 -62.9054 -34.3125 -34.3125 -34.3123 -34.3123
   -24.5884 -24.5884 -24.5881 -24.5881 -24.4963 -24.4963 -24.4961 -24.4961
    -3.6905  -3.6905  -3.5719  -3.5719  -2.6183  -2.6183  -2.4332  -2.4332
     4.7190   4.7190   5.2260   5.2260   7.3734   7.3734   7.4072   7.4072
     7.6036   7.6036   8.1326   8.1326   8.8357   8.8357   8.8566   8.8566
     9.0346   9.0346   9.0652   9.0652   9.4200   9.4200   9.6665   9.6665
    10.4392  10.4392  10.5428  10.5428  13.0045  13.0045  13.2357  13.2357
    13.5301  13.5301  13.6268  13.6268  13.7166  13.7166  13.8011  13.8011
    14.4869  14.4869  14.5783  14.5783  17.4419  17.4419  17.7593  17.7593
    19.5472  19.5472  19.6969  19.6969  20.3476  20.3476  20.5486  20.5486
    20.8132  20.8132  21.0262  21.0262  21.7305  21.7305  21.9847  21.9847
    22.6579  22.6579  22.7769  22.7769  23.0171  23.0171  23.7002  23.7002
    23.7580  23.7580  24.1885  24.1885

     occupation numbers 
     1.0000   1.0000   1.0000   1.0000   1.0000   1.0000   1.0000   1.0000
     1.0000   1.0000   1.0000   1.0000   1.0000   1.0000   1.0000   1.0000
     1.0000   1.0000   1.0000   1.0000   1.0000   1.0000   1.0000   1.0000
     1.0000   1.0000   1.0000   1.0000   1.0000   1.0000   1.0000   1.0000
     1.0000   1.0000   1.0000   1.0000   1.0000   1.0000   1.0000   1.0000
     1.0000   1.0000   1.0000   1.0000   1.0000   1.0000   1.0000   1.0000
     1.0000   1.0000   1.0000   1.0000   0.0000   0.0000   0.0000   0.0000
     0.0000   0.0000   0.0000   0.0000   0.0000   0.0000   0.0000   0.0000
     0.0000   0.0000   0.0000   0.0000   0.0000   0.0000   0.0000   0.0000
     0.0000   0.0000   0.0000   0.0000   0.0000   0.0000   0.0000   0.0000
     0.0000   0.0000   0.0000   0.0000   0.0000   0.0000   0.0000   0.0000
     0.0000   0.0000   0.0000   0.0000   0.0000   0.0000   0.0000   0.0000
     0.0000   0.0000   0.0000   0.0000

          k = 0.0000 0.2887 0.0000 (  4862 PWs)   bands (ev):

   -62.9029 -62.9029 -62.9028 -62.9028 -34.3241 -34.3241 -34.3237 -34.3237
   -24.6118 -24.6118 -24.6110 -24.6110 -24.5288 -24.5288 -24.5283 -24.5283
    -3.2742  -3.2742  -3.0417  -3.0417  -2.4731  -2.4731  -2.1485  -2.1485
     5.0284   5.0284   5.9724   5.9724   6.4506   6.4506   6.6663   6.6663
     6.7375   6.7375   7.4099   7.4099   8.5179   8.5179   8.6016   8.6016
     8.8363   8.8363   9.2104   9.2104   9.2899   9.2899   9.7058   9.7058
     9.8826   9.8826  10.0108  10.0108  12.5209  12.5209  13.2096  13.2096
    13.2950  13.2950  13.5211  13.5211  13.6729  13.6729  14.3255  14.3255
    14.7682  14.7682  15.0807  15.0807  17.6003  17.6003  17.8091  17.8091
    19.0986  19.0986  19.2589  19.2589  19.3725  19.3725  20.0151  20.0151
    21.0648  21.0648  21.2627  21.2627  22.3093  22.3093  22.3212  22.3212
    23.0801  23.0801  23.3584  23.3584  23.7388  23.7388  23.8527  23.8527
    23.9554  23.9554  24.5459  24.5459

     occupation numbers 
     1.0000   1.0000   1.0000   1.0000   1.0000   1.0000   1.0000   1.0000
     1.0000   1.0000   1.0000   1.0000   1.0000   1.0000   1.0000   1.0000
     1.0000   1.0000   1.0000   1.0000   1.0000   1.0000   1.0000   1.0000
     1.0000   1.0000   1.0000   1.0000   1.0000   1.0000   1.0000   1.0000
     1.0000   1.0000   1.0000   1.0000   1.0000   1.0000   1.0000   1.0000
     1.0000   1.0000   1.0000   1.0000   1.0000   1.0000   1.0000   1.0000
     1.0000   1.0000   1.0000   1.0000   0.0000   0.0000   0.0000   0.0000
     0.0000   0.0000   0.0000   0.0000   0.0000   0.0000   0.0000   0.0000
     0.0000   0.0000   0.0000   0.0000   0.0000   0.0000   0.0000   0.0000
     0.0000   0.0000   0.0000   0.0000   0.0000   0.0000   0.0000   0.0000
     0.0000   0.0000   0.0000   0.0000   0.0000   0.0000   0.0000   0.0000
     0.0000   0.0000   0.0000   0.0000   0.0000   0.0000   0.0000   0.0000
     0.0000   0.0000   0.0000   0.0000

          k = 0.0000 0.2887 0.0844 (  4837 PWs)   bands (ev):

   -62.9028 -62.9028 -62.9027 -62.9027 -34.3238 -34.3238 -34.3235 -34.3235
   -24.6110 -24.6110 -24.6107 -24.6107 -24.5284 -24.5284 -24.5281 -24.5281
    -3.2295  -3.2295  -3.1182  -3.1182  -2.3741  -2.3741  -2.2168  -2.2168
     5.1951   5.1951   5.6251   5.6251   6.4788   6.4788   6.5518   6.5518
     7.1098   7.1098   7.3663   7.3663   8.5373   8.5373   8.5789   8.5789
     8.9298   8.9298   9.1549   9.1549   9.3077   9.3077   9.4563   9.4563
     9.9696   9.9696  10.0077  10.0077  12.7227  12.7227  13.0788  13.0788
    13.2811  13.2811  13.4078  13.4078  13.8984  13.8984  14.1933  14.1933
    14.8533  14.8533  15.0093  15.0093  17.5670  17.5670  17.6711  17.6711
    19.2288  19.2288  19.4652  19.4652  19.6815  19.6815  19.9084  19.9084
    20.8028  20.8028  21.1640  21.1640  21.9791  21.9791  22.1810  22.1810
    23.1451  23.1451  23.2927  23.2927  23.6526  23.6526  23.9331  23.9331
    24.3081  24.3081  24.4659  24.4659

     occupation numbers 
     1.0000   1.0000   1.0000   1.0000   1.0000   1.0000   1.0000   1.0000
     1.0000   1.0000   1.0000   1.0000   1.0000   1.0000   1.0000   1.0000
     1.0000   1.0000   1.0000   1.0000   1.0000   1.0000   1.0000   1.0000
     1.0000   1.0000   1.0000   1.0000   1.0000   1.0000   1.0000   1.0000
     1.0000   1.0000   1.0000   1.0000   1.0000   1.0000   1.0000   1.0000
     1.0000   1.0000   1.0000   1.0000   1.0000   1.0000   1.0000   1.0000
     1.0000   1.0000   1.0000   1.0000   0.0000   0.0000   0.0000   0.0000
     0.0000   0.0000   0.0000   0.0000   0.0000   0.0000   0.0000   0.0000
     0.0000   0.0000   0.0000   0.0000   0.0000   0.0000   0.0000   0.0000
     0.0000   0.0000   0.0000   0.0000   0.0000   0.0000   0.0000   0.0000
     0.0000   0.0000   0.0000   0.0000   0.0000   0.0000   0.0000   0.0000
     0.0000   0.0000   0.0000   0.0000   0.0000   0.0000   0.0000   0.0000
     0.0000   0.0000   0.0000   0.0000

          k = 0.0000 0.3849 0.0000 (  4866 PWs)   bands (ev):

   -62.9001 -62.9001 -62.9000 -62.9000 -34.3351 -34.3351 -34.3350 -34.3350
   -24.6505 -24.6505 -24.6501 -24.6501 -24.5432 -24.5432 -24.5431 -24.5431
    -2.7314  -2.7314  -2.5289  -2.5289  -2.1786  -2.1786  -1.9295  -1.9295
     5.1094   5.1094   5.4716   5.4716   5.9635   5.9635   6.1744   6.1744
     6.5502   6.5502   6.7830   6.7830   8.1223   8.1223   8.2175   8.2175
     8.5538   8.5538   9.1404   9.1404   9.4080   9.4080   9.5822   9.5822
     9.7459   9.7459   9.8908   9.8908  12.7216  12.7216  13.1496  13.1496
    13.2645  13.2645  13.5429  13.5429  13.9432  13.9432  14.8935  14.8935
    15.0047  15.0047  15.4229  15.4229  16.6174  16.6174  17.4676  17.4676
    18.1969  18.1969  18.2087  18.2087  18.5631  18.5631  20.0444  20.0444
    20.7198  20.7198  21.0365  21.0365  21.8567  21.8567  22.2306  22.2306
    22.8050  22.8050  23.4081  23.4081  23.5860  23.5860  24.6254  24.6254
    24.6961  24.6961  24.8470  24.8470

     occupation numbers 
     1.0000   1.0000   1.0000   1.0000   1.0000   1.0000   1.0000   1.0000
     1.0000   1.0000   1.0000   1.0000   1.0000   1.0000   1.0000   1.0000
     1.0000   1.0000   1.0000   1.0000   1.0000   1.0000   1.0000   1.0000
     1.0000   1.0000   1.0000   1.0000   1.0000   1.0000   1.0000   1.0000
     1.0000   1.0000   1.0000   1.0000   1.0000   1.0000   1.0000   1.0000
     1.0000   1.0000   1.0000   1.0000   1.0000   1.0000   1.0000   1.0000
     1.0000   1.0000   1.0000   1.0000   0.0000   0.0000   0.0000   0.0000
     0.0000   0.0000   0.0000   0.0000   0.0000   0.0000   0.0000   0.0000
     0.0000   0.0000   0.0000   0.0000   0.0000   0.0000   0.0000   0.0000
     0.0000   0.0000   0.0000   0.0000   0.0000   0.0000   0.0000   0.0000
     0.0000   0.0000   0.0000   0.0000   0.0000   0.0000   0.0000   0.0000
     0.0000   0.0000   0.0000   0.0000   0.0000   0.0000   0.0000   0.0000
     0.0000   0.0000   0.0000   0.0000

          k = 0.0000 0.3849 0.0844 (  4872 PWs)   bands (ev):

   -62.9001 -62.9001 -62.9000 -62.9000 -34.3352 -34.3352 -34.3350 -34.3350
   -24.6506 -24.6506 -24.6502 -24.6502 -24.5433 -24.5433 -24.5431 -24.5431
    -2.6940  -2.6940  -2.5987  -2.5987  -2.0974  -2.0974  -1.9787  -1.9787
     5.1893   5.1893   5.3684   5.3684   5.9886   5.9886   6.1006   6.1006
     6.6510   6.6510   6.7680   6.7680   8.1444   8.1444   8.1916   8.1916
     8.6625   8.6625   8.9389   8.9389   9.4809   9.4809   9.5571   9.5571
     9.7901   9.7901   9.8608   9.8608  12.8677  12.8677  13.1097  13.1097
    13.2470  13.2470  13.3783  13.3783  14.2215  14.2215  14.6737  14.6737
    15.0981  15.0981  15.3164  15.3164  16.6908  16.6908  17.0147  17.0147
    18.5028  18.5028  18.6508  18.6508  18.9011  18.9011  19.6373  19.6373
    20.2666  20.2666  20.6859  20.6859  22.3054  22.3054  22.5680  22.5680
    22.8720  22.8720  23.0904  23.0904  23.3840  23.3840  24.1200  24.1200
    25.2139  25.2139  25.2839  25.2839

     occupation numbers 
     1.0000   1.0000   1.0000   1.0000   1.0000   1.0000   1.0000   1.0000
     1.0000   1.0000   1.0000   1.0000   1.0000   1.0000   1.0000   1.0000
     1.0000   1.0000   1.0000   1.0000   1.0000   1.0000   1.0000   1.0000
     1.0000   1.0000   1.0000   1.0000   1.0000   1.0000   1.0000   1.0000
     1.0000   1.0000   1.0000   1.0000   1.0000   1.0000   1.0000   1.0000
     1.0000   1.0000   1.0000   1.0000   1.0000   1.0000   1.0000   1.0000
     1.0000   1.0000   1.0000   1.0000   0.0000   0.0000   0.0000   0.0000
     0.0000   0.0000   0.0000   0.0000   0.0000   0.0000   0.0000   0.0000
     0.0000   0.0000   0.0000   0.0000   0.0000   0.0000   0.0000   0.0000
     0.0000   0.0000   0.0000   0.0000   0.0000   0.0000   0.0000   0.0000
     0.0000   0.0000   0.0000   0.0000   0.0000   0.0000   0.0000   0.0000
     0.0000   0.0000   0.0000   0.0000   0.0000   0.0000   0.0000   0.0000
     0.0000   0.0000   0.0000   0.0000

          k = 0.0000 0.4811 0.0000 (  4868 PWs)   bands (ev):

   -62.8981 -62.8981 -62.8980 -62.8980 -34.3434 -34.3434 -34.3431 -34.3431
   -24.6846 -24.6846 -24.6842 -24.6842 -24.5479 -24.5479 -24.5474 -24.5474
    -2.2511  -2.2511  -2.1006  -2.1006  -1.9238  -1.9238  -1.7632  -1.7632
     4.5311   4.5311   4.8164   4.8164   5.7043   5.7043   5.9198   5.9198
     6.1654   6.1654   6.9252   6.9252   7.8685   7.8685   7.9666   7.9666
     8.4841   8.4841   8.8650   8.8650   9.4885   9.4885   9.6918   9.6918
     9.9298   9.9298  10.0767  10.0767  13.1088  13.1088  13.2184  13.2184
    13.4350  13.4350  13.7125  13.7125  14.1978  14.1978  15.0815  15.0815
    15.3031  15.3031  15.5003  15.5003  15.6172  15.6172  16.4924  16.4924
    17.6363  17.6363  17.8028  17.8028  18.3634  18.3634  19.7605  19.7605
    19.9512  19.9512  20.0333  20.0333  21.2089  21.2089  22.0614  22.0614
    22.5420  22.5420  22.6838  22.6838  23.9254  23.9254  25.0214  25.0214
    25.1784  25.1784  25.2333  25.2333

     occupation numbers 
     1.0000   1.0000   1.0000   1.0000   1.0000   1.0000   1.0000   1.0000
     1.0000   1.0000   1.0000   1.0000   1.0000   1.0000   1.0000   1.0000
     1.0000   1.0000   1.0000   1.0000   1.0000   1.0000   1.0000   1.0000
     1.0000   1.0000   1.0000   1.0000   1.0000   1.0000   1.0000   1.0000
     1.0000   1.0000   1.0000   1.0000   1.0000   1.0000   1.0000   1.0000
     1.0000   1.0000   1.0000   1.0000   1.0000   1.0000   1.0000   1.0000
     1.0000   1.0000   1.0000   1.0000   0.0000   0.0000   0.0000   0.0000
     0.0000   0.0000   0.0000   0.0000   0.0000   0.0000   0.0000   0.0000
     0.0000   0.0000   0.0000   0.0000   0.0000   0.0000   0.0000   0.0000
     0.0000   0.0000   0.0000   0.0000   0.0000   0.0000   0.0000   0.0000
     0.0000   0.0000   0.0000   0.0000   0.0000   0.0000   0.0000   0.0000
     0.0000   0.0000   0.0000   0.0000   0.0000   0.0000   0.0000   0.0000
     0.0000   0.0000   0.0000   0.0000

          k = 0.0000 0.4811 0.0844 (  4872 PWs)   bands (ev):

   -62.8981 -62.8981 -62.8980 -62.8980 -34.3433 -34.3433 -34.3432 -34.3432
   -24.6845 -24.6845 -24.6843 -24.6843 -24.5478 -24.5478 -24.5476 -24.5476
    -2.2242  -2.2242  -2.1548  -2.1548  -1.8670  -1.8670  -1.7926  -1.7926
     4.5956   4.5956   4.7376   4.7376   5.7133   5.7133   5.7788   5.7788
     6.4522   6.4522   6.7910   6.7910   7.8914   7.8914   7.9402   7.9402
     8.5499   8.5499   8.7278   8.7278   9.5794   9.5794   9.6758   9.6758
     9.9559   9.9559  10.0335  10.0335  13.1544  13.1544  13.2058  13.2058
    13.4806  13.4806  13.6135  13.6135  14.4314  14.4314  14.9293  14.9293
    15.2142  15.2142  15.4776  15.4776  15.7158  15.7158  16.1975  16.1975
    17.6663  17.6663  18.1681  18.1681  18.6693  18.6693  19.3636  19.3636
    19.6801  19.6801  20.0531  20.0531  21.4917  21.4917  22.0888  22.0888
    22.3773  22.3773  22.7178  22.7178  23.7892  23.7892  24.6075  24.6075
    25.7896  25.7896  25.8169  25.8169

     occupation numbers 
     1.0000   1.0000   1.0000   1.0000   1.0000   1.0000   1.0000   1.0000
     1.0000   1.0000   1.0000   1.0000   1.0000   1.0000   1.0000   1.0000
     1.0000   1.0000   1.0000   1.0000   1.0000   1.0000   1.0000   1.0000
     1.0000   1.0000   1.0000   1.0000   1.0000   1.0000   1.0000   1.0000
     1.0000   1.0000   1.0000   1.0000   1.0000   1.0000   1.0000   1.0000
     1.0000   1.0000   1.0000   1.0000   1.0000   1.0000   1.0000   1.0000
     1.0000   1.0000   1.0000   1.0000   0.0000   0.0000   0.0000   0.0000
     0.0000   0.0000   0.0000   0.0000   0.0000   0.0000   0.0000   0.0000
     0.0000   0.0000   0.0000   0.0000   0.0000   0.0000   0.0000   0.0000
     0.0000   0.0000   0.0000   0.0000   0.0000   0.0000   0.0000   0.0000
     0.0000   0.0000   0.0000   0.0000   0.0000   0.0000   0.0000   0.0000
     0.0000   0.0000   0.0000   0.0000   0.0000   0.0000   0.0000   0.0000
     0.0000   0.0000   0.0000   0.0000

          k = 0.0000-0.5774 0.0000 (  4854 PWs)   bands (ev):

   -62.8973 -62.8973 -62.8972 -62.8972 -34.3462 -34.3462 -34.3460 -34.3460
   -24.6970 -24.6970 -24.6968 -24.6968 -24.5488 -24.5488 -24.5484 -24.5484
    -2.0436  -2.0436  -1.9314  -1.9314  -1.8147  -1.8147  -1.7082  -1.7082
     4.2670   4.2670   4.5533   4.5533   5.5206   5.5206   5.6918   5.6918
     6.2313   6.2313   6.9358   6.9358   7.7817   7.7817   7.8812   7.8812
     8.5228   8.5228   8.7178   8.7178   9.6742   9.6742   9.7408   9.7408
    10.0227  10.0227  10.1539  10.1539  13.2609  13.2609  13.2839  13.2839
    13.6294  13.6294  13.8645  13.8645  14.3182  14.3182  15.0892  15.0892
    15.1166  15.1166  15.4430  15.4430  15.6139  15.6139  15.6805  15.6805
    17.4563  17.4563  17.9143  17.9143  18.6843  18.6843  19.0289  19.0289
    19.4756  19.4756  19.9429  19.9429  20.8558  20.8558  22.1715  22.1715
    22.1975  22.1975  22.5313  22.5313  23.7760  23.7760  25.2595  25.2595
    25.4504  25.4504  25.5210  25.5210

     occupation numbers 
     1.0000   1.0000   1.0000   1.0000   1.0000   1.0000   1.0000   1.0000
     1.0000   1.0000   1.0000   1.0000   1.0000   1.0000   1.0000   1.0000
     1.0000   1.0000   1.0000   1.0000   1.0000   1.0000   1.0000   1.0000
     1.0000   1.0000   1.0000   1.0000   1.0000   1.0000   1.0000   1.0000
     1.0000   1.0000   1.0000   1.0000   1.0000   1.0000   1.0000   1.0000
     1.0000   1.0000   1.0000   1.0000   1.0000   1.0000   1.0000   1.0000
     1.0000   1.0000   1.0000   1.0000   0.0000   0.0000   0.0000   0.0000
     0.0000   0.0000   0.0000   0.0000   0.0000   0.0000   0.0000   0.0000
     0.0000   0.0000   0.0000   0.0000   0.0000   0.0000   0.0000   0.0000
     0.0000   0.0000   0.0000   0.0000   0.0000   0.0000   0.0000   0.0000
     0.0000   0.0000   0.0000   0.0000   0.0000   0.0000   0.0000   0.0000
     0.0000   0.0000   0.0000   0.0000   0.0000   0.0000   0.0000   0.0000
     0.0000   0.0000   0.0000   0.0000

          k = 0.0000-0.5774 0.0844 (  4860 PWs)   bands (ev):

   -62.8973 -62.8973 -62.8972 -62.8972 -34.3463 -34.3463 -34.3460 -34.3460
   -24.6972 -24.6972 -24.6969 -24.6969 -24.5491 -24.5491 -24.5483 -24.5483
    -2.0236  -2.0236  -1.9717  -1.9717  -1.7758  -1.7758  -1.7268  -1.7268
     4.3320   4.3320   4.4749   4.4749   5.5343   5.5343   5.6019   5.6019
     6.4650   6.4650   6.7999   6.7999   7.8050   7.8050   7.8546   7.8546
     8.5527   8.5527   8.6459   8.6459   9.7141   9.7141   9.7489   9.7489
    10.0419  10.0419  10.1093  10.1093  13.2731  13.2731  13.2880  13.2880
    13.7167  13.7167  13.8429  13.8429  14.4500  14.4500  14.8758  14.8758
    15.2494  15.2494  15.2914  15.2914  15.5267  15.5267  15.6763  15.6763
    17.4845  17.4845  18.1994  18.1994  18.5198  18.5198  19.0690  19.0690
    19.4350  19.4350  19.8830  19.8830  21.1469  21.1469  21.7862  21.7862
    22.3470  22.3470  22.3783  22.3783  23.7772  23.7772  24.9005  24.9005
    26.0093  26.0093  26.0203  26.0203

     occupation numbers 
     1.0000   1.0000   1.0000   1.0000   1.0000   1.0000   1.0000   1.0000
     1.0000   1.0000   1.0000   1.0000   1.0000   1.0000   1.0000   1.0000
     1.0000   1.0000   1.0000   1.0000   1.0000   1.0000   1.0000   1.0000
     1.0000   1.0000   1.0000   1.0000   1.0000   1.0000   1.0000   1.0000
     1.0000   1.0000   1.0000   1.0000   1.0000   1.0000   1.0000   1.0000
     1.0000   1.0000   1.0000   1.0000   1.0000   1.0000   1.0000   1.0000
     1.0000   1.0000   1.0000   1.0000   0.0000   0.0000   0.0000   0.0000
     0.0000   0.0000   0.0000   0.0000   0.0000   0.0000   0.0000   0.0000
     0.0000   0.0000   0.0000   0.0000   0.0000   0.0000   0.0000   0.0000
     0.0000   0.0000   0.0000   0.0000   0.0000   0.0000   0.0000   0.0000
     0.0000   0.0000   0.0000   0.0000   0.0000   0.0000   0.0000   0.0000
     0.0000   0.0000   0.0000   0.0000   0.0000   0.0000   0.0000   0.0000
     0.0000   0.0000   0.0000   0.0000

          k = 0.0833 0.1443 0.0000 (  4845 PWs)   bands (ev):

   -62.9062 -62.9062 -62.9062 -62.9062 -34.3103 -34.3103 -34.3099 -34.3099
   -24.5857 -24.5857 -24.5851 -24.5851 -24.4880 -24.4880 -24.4860 -24.4860
    -3.8389  -3.8389  -3.5918  -3.5918  -2.7839  -2.7839  -2.3946  -2.3946
     4.3970   4.3970   5.4949   5.4949   7.2337   7.2337   7.6170   7.6170
     7.6732   7.6732   8.5602   8.5602   8.7131   8.7131   8.8278   8.8278
     9.0034   9.0034   9.0714   9.0714   9.6123   9.6123  10.1227  10.1227
    10.3347  10.3347  10.7334  10.7334  13.0353  13.0353  13.3188  13.3188
    13.5243  13.5243  13.6409  13.6409  13.6678  13.6678  13.8698  13.8698
    14.3379  14.3379  14.5608  14.5608  17.1474  17.1474  17.7175  17.7175
    19.5502  19.5502  20.1239  20.1239  20.3244  20.3244  20.6958  20.6958
    20.8675  20.8675  21.1577  21.1577  21.5369  21.5369  21.7680  21.7680
    21.8690  21.8690  22.6686  22.6686  22.7809  22.7809  23.4920  23.4920
    24.1707  24.1707  24.4112  24.4112

     occupation numbers 
     1.0000   1.0000   1.0000   1.0000   1.0000   1.0000   1.0000   1.0000
     1.0000   1.0000   1.0000   1.0000   1.0000   1.0000   1.0000   1.0000
     1.0000   1.0000   1.0000   1.0000   1.0000   1.0000   1.0000   1.0000
     1.0000   1.0000   1.0000   1.0000   1.0000   1.0000   1.0000   1.0000
     1.0000   1.0000   1.0000   1.0000   1.0000   1.0000   1.0000   1.0000
     1.0000   1.0000   1.0000   1.0000   1.0000   1.0000   1.0000   1.0000
     1.0000   1.0000   1.0000   1.0000   0.0000   0.0000   0.0000   0.0000
     0.0000   0.0000   0.0000   0.0000   0.0000   0.0000   0.0000   0.0000
     0.0000   0.0000   0.0000   0.0000   0.0000   0.0000   0.0000   0.0000
     0.0000   0.0000   0.0000   0.0000   0.0000   0.0000   0.0000   0.0000
     0.0000   0.0000   0.0000   0.0000   0.0000   0.0000   0.0000   0.0000
     0.0000   0.0000   0.0000   0.0000   0.0000   0.0000   0.0000   0.0000
     0.0000   0.0000   0.0000   0.0000

          k = 0.0833 0.1443 0.0844 (  4826 PWs)   bands (ev):

   -62.9061 -62.9061 -62.9061 -62.9061 -34.3100 -34.3100 -34.3097 -34.3097
   -24.5853 -24.5853 -24.5847 -24.5847 -24.4877 -24.4877 -24.4858 -24.4858
    -3.7899  -3.7899  -3.6702  -3.6702  -2.6713  -2.6713  -2.4806  -2.4806
     4.6027   4.6027   5.1174   5.1174   7.5984   7.5984   7.6434   7.6434
     7.7444   7.7444   8.3575   8.3575   8.7099   8.7099   8.8297   8.8297
     8.9741   8.9741   9.0710   9.0710   9.6001   9.6001   9.8301   9.8301
    10.5718  10.5718  10.7046  10.7046  13.1400  13.1400  13.2830  13.2830
    13.5570  13.5570  13.6066  13.6066  13.6712  13.6712  13.8474  13.8474
    14.3635  14.3635  14.5426  14.5426  17.2895  17.2895  17.5781  17.5781
    19.6416  19.6416  19.9929  19.9929  20.2853  20.2853  20.6077  20.6077
    20.8123  20.8123  21.0667  21.0667  21.6571  21.6571  21.8029  21.8029
    22.1783  22.1783  22.5271  22.5271  22.9569  22.9569  23.5683  23.5683
    23.6365  23.6365  24.1087  24.1087

     occupation numbers 
     1.0000   1.0000   1.0000   1.0000   1.0000   1.0000   1.0000   1.0000
     1.0000   1.0000   1.0000   1.0000   1.0000   1.0000   1.0000   1.0000
     1.0000   1.0000   1.0000   1.0000   1.0000   1.0000   1.0000   1.0000
     1.0000   1.0000   1.0000   1.0000   1.0000   1.0000   1.0000   1.0000
     1.0000   1.0000   1.0000   1.0000   1.0000   1.0000   1.0000   1.0000
     1.0000   1.0000   1.0000   1.0000   1.0000   1.0000   1.0000   1.0000
     1.0000   1.0000   1.0000   1.0000   0.0000   0.0000   0.0000   0.0000
     0.0000   0.0000   0.0000   0.0000   0.0000   0.0000   0.0000   0.0000
     0.0000   0.0000   0.0000   0.0000   0.0000   0.0000   0.0000   0.0000
     0.0000   0.0000   0.0000   0.0000   0.0000   0.0000   0.0000   0.0000
     0.0000   0.0000   0.0000   0.0000   0.0000   0.0000   0.0000   0.0000
     0.0000   0.0000   0.0000   0.0000   0.0000   0.0000   0.0000   0.0000
     0.0000   0.0000   0.0000   0.0000

          k = 0.0833 0.2406 0.0000 (  4845 PWs)   bands (ev):

   -62.9038 -62.9038 -62.9038 -62.9038 -34.3201 -34.3201 -34.3192 -34.3192
   -24.5995 -24.5995 -24.5986 -24.5986 -24.5228 -24.5228 -24.5184 -24.5184
    -3.4524  -3.4524  -3.2134  -3.2134  -2.5704  -2.5704  -2.2240  -2.2240
     4.8590   4.8590   5.9228   5.9228   6.8046   6.8046   6.8946   6.8946
     6.9709   6.9709   7.8386   7.8386   8.3240   8.3240   8.4906   8.4906
     8.8825   8.8825   9.1078   9.1078   9.4577   9.4577   9.9595   9.9595
    10.0835  10.0835  10.2497  10.2497  12.4879  12.4879  13.1735  13.1735
    13.2531  13.2531  13.4058  13.4058  13.7053  13.7053  13.9065  13.9065
    14.7273  14.7273  15.0911  15.0911  17.8374  17.8374  18.3495  18.3495
    19.5833  19.5833  19.8288  19.8288  19.9653  19.9653  20.2536  20.2536
    20.6919  20.6919  20.9850  20.9850  21.8339  21.8339  22.0520  22.0520
    22.4329  22.4329  22.6222  22.6222  23.3363  23.3363  23.7967  23.7967
    23.8488  23.8488  24.0133  24.0133

     occupation numbers 
     1.0000   1.0000   1.0000   1.0000   1.0000   1.0000   1.0000   1.0000
     1.0000   1.0000   1.0000   1.0000   1.0000   1.0000   1.0000   1.0000
     1.0000   1.0000   1.0000   1.0000   1.0000   1.0000   1.0000   1.0000
     1.0000   1.0000   1.0000   1.0000   1.0000   1.0000   1.0000   1.0000
     1.0000   1.0000   1.0000   1.0000   1.0000   1.0000   1.0000   1.0000
     1.0000   1.0000   1.0000   1.0000   1.0000   1.0000   1.0000   1.0000
     1.0000   1.0000   1.0000   1.0000   0.0000   0.0000   0.0000   0.0000
     0.0000   0.0000   0.0000   0.0000   0.0000   0.0000   0.0000   0.0000
     0.0000   0.0000   0.0000   0.0000   0.0000   0.0000   0.0000   0.0000
     0.0000   0.0000   0.0000   0.0000   0.0000   0.0000   0.0000   0.0000
     0.0000   0.0000   0.0000   0.0000   0.0000   0.0000   0.0000   0.0000
     0.0000   0.0000   0.0000   0.0000   0.0000   0.0000   0.0000   0.0000
     0.0000   0.0000   0.0000   0.0000

          k = 0.0833 0.2406 0.0844 (  4839 PWs)   bands (ev):

   -62.9038 -62.9038 -62.9037 -62.9037 -34.3201 -34.3201 -34.3191 -34.3191
   -24.5993 -24.5993 -24.5984 -24.5984 -24.5227 -24.5227 -24.5183 -24.5183
    -3.4062  -3.4062  -3.2907  -3.2907  -2.4667  -2.4667  -2.2981  -2.2981
     5.0442   5.0442   5.5256   5.5256   6.8276   6.8276   6.8768   6.8768
     7.3661   7.3661   7.7563   7.7563   8.3407   8.3407   8.4311   8.4311
     8.8836   8.8836   9.1077   9.1077   9.4692   9.4692   9.7412   9.7412
    10.1469  10.1469  10.2693  10.2693  12.6712  12.6712  13.0075  13.0075
    13.3026  13.3026  13.4139  13.4139  13.7261  13.7261  13.8781  13.8781
    14.7977  14.7977  15.0175  15.0175  17.9304  17.9304  18.1829  18.1829
    19.5376  19.5376  19.7532  19.7532  20.1956  20.1956  20.4909  20.4909
    20.7095  20.7095  20.8974  20.8974  21.7582  21.7582  21.9789  21.9789
    22.3644  22.3644  22.6206  22.6206  22.9957  22.9957  23.0958  23.0958
    24.0487  24.0487  24.6551  24.6551

     occupation numbers 
     1.0000   1.0000   1.0000   1.0000   1.0000   1.0000   1.0000   1.0000
     1.0000   1.0000   1.0000   1.0000   1.0000   1.0000   1.0000   1.0000
     1.0000   1.0000   1.0000   1.0000   1.0000   1.0000   1.0000   1.0000
     1.0000   1.0000   1.0000   1.0000   1.0000   1.0000   1.0000   1.0000
     1.0000   1.0000   1.0000   1.0000   1.0000   1.0000   1.0000   1.0000
     1.0000   1.0000   1.0000   1.0000   1.0000   1.0000   1.0000   1.0000
     1.0000   1.0000   1.0000   1.0000   0.0000   0.0000   0.0000   0.0000
     0.0000   0.0000   0.0000   0.0000   0.0000   0.0000   0.0000   0.0000
     0.0000   0.0000   0.0000   0.0000   0.0000   0.0000   0.0000   0.0000
     0.0000   0.0000   0.0000   0.0000   0.0000   0.0000   0.0000   0.0000
     0.0000   0.0000   0.0000   0.0000   0.0000   0.0000   0.0000   0.0000
     0.0000   0.0000   0.0000   0.0000   0.0000   0.0000   0.0000   0.0000
     0.0000   0.0000   0.0000   0.0000

          k = 0.0833 0.3368 0.0000 (  4876 PWs)   bands (ev):

   -62.9012 -62.9012 -62.9011 -62.9011 -34.3319 -34.3319 -34.3302 -34.3302
   -24.6317 -24.6317 -24.6296 -24.6296 -24.5457 -24.5457 -24.5418 -24.5418
    -2.9452  -2.9452  -2.7262  -2.7262  -2.2922  -2.2922  -2.0102  -2.0102
     5.2756   5.2756   5.8736   5.8736   6.0689   6.0689   6.4889   6.4889
     6.6355   6.6355   6.9404   6.9404   7.8203   7.8203   8.1090   8.1090
     8.8495   8.8495   9.1546   9.1546   9.2223   9.2223   9.5155   9.5155
     9.8626   9.8626  10.1153  10.1153  12.3626  12.3626  13.1162  13.1162
    13.2621  13.2621  13.4825  13.4825  13.7665  13.7665  14.3666  14.3666
    14.9513  14.9513  15.5334  15.5334  17.4362  17.4362  17.9226  17.9226
    18.8732  18.8732  18.9763  18.9763  19.2492  19.2492  20.2924  20.2924
    20.9666  20.9666  21.1528  21.1528  21.6185  21.6185  22.0073  22.0073
    22.5329  22.5329  22.8003  22.8003  23.5899  23.5899  23.7021  23.7021
    24.3512  24.3512  24.4901  24.4901

     occupation numbers 
     1.0000   1.0000   1.0000   1.0000   1.0000   1.0000   1.0000   1.0000
     1.0000   1.0000   1.0000   1.0000   1.0000   1.0000   1.0000   1.0000
     1.0000   1.0000   1.0000   1.0000   1.0000   1.0000   1.0000   1.0000
     1.0000   1.0000   1.0000   1.0000   1.0000   1.0000   1.0000   1.0000
     1.0000   1.0000   1.0000   1.0000   1.0000   1.0000   1.0000   1.0000
     1.0000   1.0000   1.0000   1.0000   1.0000   1.0000   1.0000   1.0000
     1.0000   1.0000   1.0000   1.0000   0.0000   0.0000   0.0000   0.0000
     0.0000   0.0000   0.0000   0.0000   0.0000   0.0000   0.0000   0.0000
     0.0000   0.0000   0.0000   0.0000   0.0000   0.0000   0.0000   0.0000
     0.0000   0.0000   0.0000   0.0000   0.0000   0.0000   0.0000   0.0000
     0.0000   0.0000   0.0000   0.0000   0.0000   0.0000   0.0000   0.0000
     0.0000   0.0000   0.0000   0.0000   0.0000   0.0000   0.0000   0.0000
     0.0000   0.0000   0.0000   0.0000

          k = 0.0833 0.3368 0.0844 (  4860 PWs)   bands (ev):

   -62.9011 -62.9011 -62.9010 -62.9010 -34.3317 -34.3317 -34.3301 -34.3301
   -24.6315 -24.6315 -24.6293 -24.6293 -24.5455 -24.5455 -24.5415 -24.5415
    -2.9053  -2.9053  -2.7987  -2.7987  -2.2029  -2.2029  -2.0675  -2.0675
     5.4009   5.4009   5.7000   5.7000   6.1065   6.1065   6.2530   6.2530
     6.8821   6.8821   6.9683   6.9683   7.9007   7.9007   8.0564   8.0564
     8.8544   8.8544   9.1099   9.1099   9.2613   9.2613   9.4112   9.4112
     9.8653   9.8653  10.1222  10.1222  12.5377  12.5377  12.9381  12.9381
    13.2881  13.2881  13.4154  13.4154  13.9608  13.9608  14.2560  14.2560
    15.0756  15.0756  15.3761  15.3761  17.4732  17.4732  17.6780  17.6780
    19.1028  19.1028  19.3600  19.3600  19.4860  19.4860  19.9139  19.9139
    20.6058  20.6058  21.0515  21.0515  21.6485  21.6485  22.0158  22.0158
    22.4918  22.4918  22.6486  22.6486  23.5990  23.5990  23.7389  23.7389
    24.5346  24.5346  24.9517  24.9517

     occupation numbers 
     1.0000   1.0000   1.0000   1.0000   1.0000   1.0000   1.0000   1.0000
     1.0000   1.0000   1.0000   1.0000   1.0000   1.0000   1.0000   1.0000
     1.0000   1.0000   1.0000   1.0000   1.0000   1.0000   1.0000   1.0000
     1.0000   1.0000   1.0000   1.0000   1.0000   1.0000   1.0000   1.0000
     1.0000   1.0000   1.0000   1.0000   1.0000   1.0000   1.0000   1.0000
     1.0000   1.0000   1.0000   1.0000   1.0000   1.0000   1.0000   1.0000
     1.0000   1.0000   1.0000   1.0000   0.0000   0.0000   0.0000   0.0000
     0.0000   0.0000   0.0000   0.0000   0.0000   0.0000   0.0000   0.0000
     0.0000   0.0000   0.0000   0.0000   0.0000   0.0000   0.0000   0.0000
     0.0000   0.0000   0.0000   0.0000   0.0000   0.0000   0.0000   0.0000
     0.0000   0.0000   0.0000   0.0000   0.0000   0.0000   0.0000   0.0000
     0.0000   0.0000   0.0000   0.0000   0.0000   0.0000   0.0000   0.0000
     0.0000   0.0000   0.0000   0.0000

          k = 0.0833 0.4330 0.0000 (  4879 PWs)   bands (ev):

   -62.8988 -62.8988 -62.8986 -62.8986 -34.3419 -34.3419 -34.3396 -34.3396
   -24.6708 -24.6708 -24.6649 -24.6649 -24.5538 -24.5538 -24.5514 -24.5514
    -2.4242  -2.4242  -2.2442  -2.2442  -2.0106  -2.0106  -1.8118  -1.8118
     4.8915   4.8915   5.1718   5.1718   5.9413   5.9413   6.1125   6.1125
     6.1734   6.1734   6.9040   6.9040   7.6385   7.6385   7.8769   7.8769
     8.6968   8.6968   8.8660   8.8660   9.1508   9.1508   9.1762   9.1762
     9.9494   9.9494  10.2556  10.2556  12.6589  12.6589  13.2473  13.2473
    13.4834  13.4834  13.6530  13.6530  13.9860  13.9860  14.8428  14.8428
    14.9382  14.9382  15.7389  15.7389  16.1972  16.1972  17.3240  17.3240
    18.1164  18.1164  18.4559  18.4559  18.7207  18.7207  20.1041  20.1041
    20.2901  20.2901  20.5329  20.5329  21.2308  21.2308  21.6781  21.6781
    22.1615  22.1615  23.0644  23.0644  24.0654  24.0654  24.4677  24.4677
    25.2546  25.2546  25.4138  25.4138

     occupation numbers 
     1.0000   1.0000   1.0000   1.0000   1.0000   1.0000   1.0000   1.0000
     1.0000   1.0000   1.0000   1.0000   1.0000   1.0000   1.0000   1.0000
     1.0000   1.0000   1.0000   1.0000   1.0000   1.0000   1.0000   1.0000
     1.0000   1.0000   1.0000   1.0000   1.0000   1.0000   1.0000   1.0000
     1.0000   1.0000   1.0000   1.0000   1.0000   1.0000   1.0000   1.0000
     1.0000   1.0000   1.0000   1.0000   1.0000   1.0000   1.0000   1.0000
     1.0000   1.0000   1.0000   1.0000   0.0000   0.0000   0.0000   0.0000
     0.0000   0.0000   0.0000   0.0000   0.0000   0.0000   0.0000   0.0000
     0.0000   0.0000   0.0000   0.0000   0.0000   0.0000   0.0000   0.0000
     0.0000   0.0000   0.0000   0.0000   0.0000   0.0000   0.0000   0.0000
     0.0000   0.0000   0.0000   0.0000   0.0000   0.0000   0.0000   0.0000
     0.0000   0.0000   0.0000   0.0000   0.0000   0.0000   0.0000   0.0000
     0.0000   0.0000   0.0000   0.0000

          k = 0.0833 0.4330 0.0844 (  4877 PWs)   bands (ev):

   -62.8987 -62.8987 -62.8987 -62.8987 -34.3419 -34.3419 -34.3396 -34.3396
   -24.6709 -24.6709 -24.6649 -24.6649 -24.5536 -24.5536 -24.5513 -24.5513
    -2.3953  -2.3953  -2.3038  -2.3038  -1.9424  -1.9424  -1.8493  -1.8493
     4.9557   4.9557   5.0961   5.0961   5.9243   5.9243   5.9590   5.9590
     6.4657   6.4657   6.7667   6.7667   7.7313   7.7313   7.8528   7.8528
     8.6939   8.6939   8.8019   8.8019   9.1206   9.1206   9.2107   9.2107
     9.9541   9.9541  10.2556  10.2556  12.7819  12.7819  13.1063  13.1063
    13.4922  13.4922  13.5565  13.5565  14.2684  14.2684  14.6771  14.6771
    15.0781  15.0781  15.4619  15.4619  16.4344  16.4344  16.9523  16.9523
    18.2574  18.2574  18.6950  18.6950  19.1391  19.1391  19.6779  19.6779
    20.0594  20.0594  20.5379  20.5379  21.0751  21.0751  21.5124  21.5124
    22.8892  22.8892  23.1432  23.1432  23.6672  23.6672  24.1986  24.1986
    25.2973  25.2973  25.7108  25.7108

     occupation numbers 
     1.0000   1.0000   1.0000   1.0000   1.0000   1.0000   1.0000   1.0000
     1.0000   1.0000   1.0000   1.0000   1.0000   1.0000   1.0000   1.0000
     1.0000   1.0000   1.0000   1.0000   1.0000   1.0000   1.0000   1.0000
     1.0000   1.0000   1.0000   1.0000   1.0000   1.0000   1.0000   1.0000
     1.0000   1.0000   1.0000   1.0000   1.0000   1.0000   1.0000   1.0000
     1.0000   1.0000   1.0000   1.0000   1.0000   1.0000   1.0000   1.0000
     1.0000   1.0000   1.0000   1.0000   0.0000   0.0000   0.0000   0.0000
     0.0000   0.0000   0.0000   0.0000   0.0000   0.0000   0.0000   0.0000
     0.0000   0.0000   0.0000   0.0000   0.0000   0.0000   0.0000   0.0000
     0.0000   0.0000   0.0000   0.0000   0.0000   0.0000   0.0000   0.0000
     0.0000   0.0000   0.0000   0.0000   0.0000   0.0000   0.0000   0.0000
     0.0000   0.0000   0.0000   0.0000   0.0000   0.0000   0.0000   0.0000
     0.0000   0.0000   0.0000   0.0000

          k = 0.0833 0.5292 0.0000 (  4871 PWs)   bands (ev):

   -62.8973 -62.8973 -62.8973 -62.8973 -34.3475 -34.3475 -34.3449 -34.3449
   -24.6950 -24.6950 -24.6870 -24.6870 -24.5561 -24.5561 -24.5546 -24.5546
    -2.0640  -2.0640  -1.9324  -1.9324  -1.8179  -1.8179  -1.7004  -1.7004
     4.4346   4.4346   4.7140   4.7140   5.5862   5.5862   5.7097   5.7097
     6.2680   6.2680   6.9610   6.9610   7.6463   7.6463   7.7481   7.7481
     8.5418   8.5418   8.7367   8.7367   9.0704   9.0704   9.2740   9.2740
    10.0449  10.0449  10.4519  10.4519  13.1172  13.1172  13.3240  13.3240
    13.5652  13.5652  13.9379  13.9379  14.3281  14.3281  14.6821  14.6821
    15.2493  15.2493  15.4202  15.4202  15.6792  15.6792  16.0725  16.0725
    18.2188  18.2188  18.3290  18.3290  18.8562  18.8562  19.3076  19.3076
    19.6060  19.6060  20.2364  20.2364  20.7683  20.7683  21.5246  21.5246
    21.9622  21.9622  22.8992  22.8992  24.2053  24.2053  24.4665  24.4665
    25.3674  25.3674  25.7446  25.7446

     occupation numbers 
     1.0000   1.0000   1.0000   1.0000   1.0000   1.0000   1.0000   1.0000
     1.0000   1.0000   1.0000   1.0000   1.0000   1.0000   1.0000   1.0000
     1.0000   1.0000   1.0000   1.0000   1.0000   1.0000   1.0000   1.0000
     1.0000   1.0000   1.0000   1.0000   1.0000   1.0000   1.0000   1.0000
     1.0000   1.0000   1.0000   1.0000   1.0000   1.0000   1.0000   1.0000
     1.0000   1.0000   1.0000   1.0000   1.0000   1.0000   1.0000   1.0000
     1.0000   1.0000   1.0000   1.0000   0.0000   0.0000   0.0000   0.0000
     0.0000   0.0000   0.0000   0.0000   0.0000   0.0000   0.0000   0.0000
     0.0000   0.0000   0.0000   0.0000   0.0000   0.0000   0.0000   0.0000
     0.0000   0.0000   0.0000   0.0000   0.0000   0.0000   0.0000   0.0000
     0.0000   0.0000   0.0000   0.0000   0.0000   0.0000   0.0000   0.0000
     0.0000   0.0000   0.0000   0.0000   0.0000   0.0000   0.0000   0.0000
     0.0000   0.0000   0.0000   0.0000

          k = 0.0833 0.5292 0.0844 (  4874 PWs)   bands (ev):

   -62.8973 -62.8973 -62.8973 -62.8973 -34.3476 -34.3476 -34.3449 -34.3449
   -24.6951 -24.6951 -24.6871 -24.6871 -24.5561 -24.5561 -24.5547 -24.5547
    -2.0478  -2.0478  -1.9712  -1.9712  -1.7748  -1.7748  -1.7210  -1.7210
     4.4966   4.4966   4.6400   4.6400   5.5916   5.5916   5.6400   5.6400
     6.4762   6.4762   6.8033   6.8033   7.6986   7.6986   7.7569   7.7569
     8.5594   8.5594   8.6590   8.6590   9.0732   9.0732   9.2677   9.2677
    10.0775  10.0775  10.4334  10.4334  13.1629  13.1629  13.2837  13.2837
    13.5972  13.5972  13.8732  13.8732  14.5372  14.5372  14.8173  14.8173
    15.0213  15.0213  15.2267  15.2267  15.7280  15.7280  16.0911  16.0911
    18.0368  18.0368  18.5975  18.5975  18.9602  18.9602  19.1874  19.1874
    19.7431  19.7431  20.2111  20.2111  20.6887  20.6887  21.1006  21.1006
    22.6325  22.6325  22.8608  22.8608  23.6817  23.6817  24.3880  24.3880
    25.7317  25.7317  26.2429  26.2429

     occupation numbers 
     1.0000   1.0000   1.0000   1.0000   1.0000   1.0000   1.0000   1.0000
     1.0000   1.0000   1.0000   1.0000   1.0000   1.0000   1.0000   1.0000
     1.0000   1.0000   1.0000   1.0000   1.0000   1.0000   1.0000   1.0000
     1.0000   1.0000   1.0000   1.0000   1.0000   1.0000   1.0000   1.0000
     1.0000   1.0000   1.0000   1.0000   1.0000   1.0000   1.0000   1.0000
     1.0000   1.0000   1.0000   1.0000   1.0000   1.0000   1.0000   1.0000
     1.0000   1.0000   1.0000   1.0000   0.0000   0.0000   0.0000   0.0000
     0.0000   0.0000   0.0000   0.0000   0.0000   0.0000   0.0000   0.0000
     0.0000   0.0000   0.0000   0.0000   0.0000   0.0000   0.0000   0.0000
     0.0000   0.0000   0.0000   0.0000   0.0000   0.0000   0.0000   0.0000
     0.0000   0.0000   0.0000   0.0000   0.0000   0.0000   0.0000   0.0000
     0.0000   0.0000   0.0000   0.0000   0.0000   0.0000   0.0000   0.0000
     0.0000   0.0000   0.0000   0.0000

          k = 0.1667 0.2887 0.0000 (  4871 PWs)   bands (ev):

   -62.9015 -62.9015 -62.9014 -62.9014 -34.3307 -34.3307 -34.3283 -34.3283
   -24.6219 -24.6219 -24.6198 -24.6198 -24.5495 -24.5495 -24.5432 -24.5432
    -3.0212  -3.0212  -2.7963  -2.7963  -2.3320  -2.3320  -2.0387  -2.0387
     5.3031   5.3031   6.1020   6.1020   6.3178   6.3178   6.4360   6.4360
     6.7285   6.7285   7.2215   7.2215   7.4342   7.4342   7.9507   7.9507
     8.6427   8.6427   8.9649   8.9649   9.4528   9.4528   9.6890   9.6890
     9.9714   9.9714  10.2277  10.2277  12.1585  12.1585  13.0476  13.0476
    13.2544  13.2544  13.2791  13.2791  13.7833  13.7833  14.0472  14.0472
    14.9865  14.9865  15.6437  15.6437  18.0143  18.0143  18.3325  18.3325
    19.3571  19.3571  19.7868  19.7868  20.1659  20.1659  20.3285  20.3285
    20.7457  20.7457  20.9318  20.9318  21.1644  21.1644  21.6708  21.6708
    21.8999  21.8999  22.4946  22.4946  23.2153  23.2153  23.3390  23.3390
    23.7792  23.7792  23.9262  23.9262

     occupation numbers 
     1.0000   1.0000   1.0000   1.0000   1.0000   1.0000   1.0000   1.0000
     1.0000   1.0000   1.0000   1.0000   1.0000   1.0000   1.0000   1.0000
     1.0000   1.0000   1.0000   1.0000   1.0000   1.0000   1.0000   1.0000
     1.0000   1.0000   1.0000   1.0000   1.0000   1.0000   1.0000   1.0000
     1.0000   1.0000   1.0000   1.0000   1.0000   1.0000   1.0000   1.0000
     1.0000   1.0000   1.0000   1.0000   1.0000   1.0000   1.0000   1.0000
     1.0000   1.0000   1.0000   1.0000   0.0000   0.0000   0.0000   0.0000
     0.0000   0.0000   0.0000   0.0000   0.0000   0.0000   0.0000   0.0000
     0.0000   0.0000   0.0000   0.0000   0.0000   0.0000   0.0000   0.0000
     0.0000   0.0000   0.0000   0.0000   0.0000   0.0000   0.0000   0.0000
     0.0000   0.0000   0.0000   0.0000   0.0000   0.0000   0.0000   0.0000
     0.0000   0.0000   0.0000   0.0000   0.0000   0.0000   0.0000   0.0000
     0.0000   0.0000   0.0000   0.0000

          k = 0.1667 0.2887 0.0844 (  4866 PWs)   bands (ev):

   -62.9015 -62.9015 -62.9014 -62.9014 -34.3306 -34.3306 -34.3283 -34.3283
   -24.6217 -24.6217 -24.6196 -24.6196 -24.5494 -24.5494 -24.5432 -24.5432
    -2.9809  -2.9809  -2.8692  -2.8692  -2.2400  -2.2400  -2.0988  -2.0988
     5.4554   5.4554   5.8603   5.8603   6.2528   6.2528   6.2967   6.2967
     7.0668   7.0668   7.2310   7.2310   7.5409   7.5409   7.8451   7.8451
     8.6372   8.6372   8.9581   8.9581   9.4249   9.4249   9.6305   9.6305
     9.9619   9.9619  10.2274  10.2274  12.3461  12.3461  12.7925  12.7925
    13.3014  13.3014  13.3846  13.3846  13.8153  13.8153  13.9741  13.9741
    15.1387  15.1387  15.4739  15.4739  18.0695  18.0695  18.2281  18.2281
    19.4766  19.4766  20.0092  20.0092  20.1264  20.1264  20.2761  20.2761
    20.6906  20.6906  20.9382  20.9382  21.1549  21.1549  21.5387  21.5387
    21.9970  21.9970  22.3068  22.3068  22.7581  22.7581  22.9533  22.9533
    24.3326  24.3326  24.6499  24.6499

     occupation numbers 
     1.0000   1.0000   1.0000   1.0000   1.0000   1.0000   1.0000   1.0000
     1.0000   1.0000   1.0000   1.0000   1.0000   1.0000   1.0000   1.0000
     1.0000   1.0000   1.0000   1.0000   1.0000   1.0000   1.0000   1.0000
     1.0000   1.0000   1.0000   1.0000   1.0000   1.0000   1.0000   1.0000
     1.0000   1.0000   1.0000   1.0000   1.0000   1.0000   1.0000   1.0000
     1.0000   1.0000   1.0000   1.0000   1.0000   1.0000   1.0000   1.0000
     1.0000   1.0000   1.0000   1.0000   0.0000   0.0000   0.0000   0.0000
     0.0000   0.0000   0.0000   0.0000   0.0000   0.0000   0.0000   0.0000
     0.0000   0.0000   0.0000   0.0000   0.0000   0.0000   0.0000   0.0000
     0.0000   0.0000   0.0000   0.0000   0.0000   0.0000   0.0000   0.0000
     0.0000   0.0000   0.0000   0.0000   0.0000   0.0000   0.0000   0.0000
     0.0000   0.0000   0.0000   0.0000   0.0000   0.0000   0.0000   0.0000
     0.0000   0.0000   0.0000   0.0000

          k = 0.1667 0.3849 0.0000 (  4880 PWs)   bands (ev):

   -62.8992 -62.8992 -62.8990 -62.8990 -34.3410 -34.3410 -34.3374 -34.3374
   -24.6557 -24.6557 -24.6463 -24.6463 -24.5645 -24.5645 -24.5609 -24.5609
    -2.5258  -2.5258  -2.3271  -2.3271  -2.0586  -2.0586  -1.8378  -1.8378
     5.3014   5.3014   5.5256   5.5256   6.1920   6.1920   6.2480   6.2480
     6.4093   6.4093   6.8113   6.8113   7.1095   7.1095   7.7266   7.7266
     8.2332   8.2332   8.5119   8.5119   9.1394   9.1394   9.3254   9.3254
    10.0148  10.0148  10.3391  10.3391  12.2664  12.2664  13.2360  13.2360
    13.4574  13.4574  13.5427  13.5427  13.7405  13.7405  14.3568  14.3568
    15.0355  15.0355  15.9691  15.9691  17.0416  17.0416  18.1644  18.1644
    18.5639  18.5639  19.3846  19.3846  19.8263  19.8263  20.0287  20.0287
    20.5138  20.5138  20.6913  20.6913  21.2913  21.2913  21.6385  21.6385
    22.2038  22.2038  22.7750  22.7750  23.2794  23.2794  23.4430  23.4430
    24.3141  24.3141  24.4055  24.4055

     occupation numbers 
     1.0000   1.0000   1.0000   1.0000   1.0000   1.0000   1.0000   1.0000
     1.0000   1.0000   1.0000   1.0000   1.0000   1.0000   1.0000   1.0000
     1.0000   1.0000   1.0000   1.0000   1.0000   1.0000   1.0000   1.0000
     1.0000   1.0000   1.0000   1.0000   1.0000   1.0000   1.0000   1.0000
     1.0000   1.0000   1.0000   1.0000   1.0000   1.0000   1.0000   1.0000
     1.0000   1.0000   1.0000   1.0000   1.0000   1.0000   1.0000   1.0000
     1.0000   1.0000   1.0000   1.0000   0.0000   0.0000   0.0000   0.0000
     0.0000   0.0000   0.0000   0.0000   0.0000   0.0000   0.0000   0.0000
     0.0000   0.0000   0.0000   0.0000   0.0000   0.0000   0.0000   0.0000
     0.0000   0.0000   0.0000   0.0000   0.0000   0.0000   0.0000   0.0000
     0.0000   0.0000   0.0000   0.0000   0.0000   0.0000   0.0000   0.0000
[...]
     5.1884   5.1884   5.3696   5.3696   5.9895   5.9895   6.0991   6.0991
     6.6486   6.6486   6.7708   6.7708   8.1443   8.1443   8.1916   8.1916
     8.6604   8.6604   8.9413   8.9413   9.4804   9.4804   9.5569   9.5569
     9.7907   9.7907   9.8604   9.8604  12.8676  12.8676  13.1097  13.1097
    13.2471  13.2471  13.3782  13.3782  14.2219  14.2219  14.6731  14.6731
    15.0981  15.0981  15.3164  15.3164  16.6885  16.6885  17.0184  17.0184
    18.5041  18.5041  18.6498  18.6498  18.8972  18.8972  19.6391  19.6391
    20.2681  20.2681  20.6847  20.6847  22.3052  22.3052  22.5686  22.5686
    22.8713  22.8713  23.0900  23.0900  23.3875  23.3875  24.1184  24.1184
    25.2130  25.2130  25.2837  25.2837

     occupation numbers 
     1.0000   1.0000   1.0000   1.0000   1.0000   1.0000   1.0000   1.0000
     1.0000   1.0000   1.0000   1.0000   1.0000   1.0000   1.0000   1.0000
     1.0000   1.0000   1.0000   1.0000   1.0000   1.0000   1.0000   1.0000
     1.0000   1.0000   1.0000   1.0000   1.0000   1.0000   1.0000   1.0000
     1.0000   1.0000   1.0000   1.0000   1.0000   1.0000   1.0000   1.0000
     1.0000   1.0000   1.0000   1.0000   1.0000   1.0000   1.0000   1.0000
     1.0000   1.0000   1.0000   1.0000   0.0000   0.0000   0.0000   0.0000
     0.0000   0.0000   0.0000   0.0000   0.0000   0.0000   0.0000   0.0000
     0.0000   0.0000   0.0000   0.0000   0.0000   0.0000   0.0000   0.0000
     0.0000   0.0000   0.0000   0.0000   0.0000   0.0000   0.0000   0.0000
     0.0000   0.0000   0.0000   0.0000   0.0000   0.0000   0.0000   0.0000
     0.0000   0.0000   0.0000   0.0000   0.0000   0.0000   0.0000   0.0000
     0.0000   0.0000   0.0000   0.0000

          k = 0.0000 0.4811-0.0844 (  4872 PWs)   bands (ev):

   -62.8981 -62.8981 -62.8980 -62.8980 -34.3433 -34.3433 -34.3432 -34.3432
   -24.6845 -24.6845 -24.6843 -24.6843 -24.5478 -24.5478 -24.5476 -24.5476
    -2.2243  -2.2243  -2.1547  -2.1547  -1.8671  -1.8671  -1.7925  -1.7925
     4.5953   4.5953   4.7380   4.7380   5.7108   5.7108   5.7818   5.7818
     6.4505   6.4505   6.7923   6.7923   7.8914   7.8914   7.9403   7.9403
     8.5482   8.5482   8.7295   8.7295   9.5792   9.5792   9.6757   9.6757
     9.9566   9.9566  10.0330  10.0330  13.1543  13.1543  13.2059  13.2059
    13.4804  13.4804  13.6138  13.6138  14.4312  14.4312  14.9294  14.9294
    15.2143  15.2143  15.4775  15.4775  15.7141  15.7141  16.1997  16.1997
    17.6679  17.6679  18.1666  18.1666  18.6657  18.6657  19.3646  19.3646
    19.6857  19.6857  20.0494  20.0494  21.4916  21.4916  22.0888  22.0888
    22.3758  22.3758  22.7205  22.7205  23.7891  23.7891  24.6069  24.6069
    25.7888  25.7888  25.8154  25.8154

     occupation numbers 
     1.0000   1.0000   1.0000   1.0000   1.0000   1.0000   1.0000   1.0000
     1.0000   1.0000   1.0000   1.0000   1.0000   1.0000   1.0000   1.0000
     1.0000   1.0000   1.0000   1.0000   1.0000   1.0000   1.0000   1.0000
     1.0000   1.0000   1.0000   1.0000   1.0000   1.0000   1.0000   1.0000
     1.0000   1.0000   1.0000   1.0000   1.0000   1.0000   1.0000   1.0000
     1.0000   1.0000   1.0000   1.0000   1.0000   1.0000   1.0000   1.0000
     1.0000   1.0000   1.0000   1.0000   0.0000   0.0000   0.0000   0.0000
     0.0000   0.0000   0.0000   0.0000   0.0000   0.0000   0.0000   0.0000
     0.0000   0.0000   0.0000   0.0000   0.0000   0.0000   0.0000   0.0000
     0.0000   0.0000   0.0000   0.0000   0.0000   0.0000   0.0000   0.0000
     0.0000   0.0000   0.0000   0.0000   0.0000   0.0000   0.0000   0.0000
     0.0000   0.0000   0.0000   0.0000   0.0000   0.0000   0.0000   0.0000
     0.0000   0.0000   0.0000   0.0000

          k =-0.0833 0.2406-0.0844 (  4839 PWs)   bands (ev):

   -62.9038 -62.9038 -62.9037 -62.9037 -34.3201 -34.3201 -34.3191 -34.3191
   -24.5993 -24.5993 -24.5984 -24.5984 -24.5227 -24.5227 -24.5183 -24.5183
    -3.4062  -3.4062  -3.2907  -3.2907  -2.4667  -2.4667  -2.2981  -2.2981
     5.0442   5.0442   5.5257   5.5257   6.8278   6.8278   6.8763   6.8763
     7.3670   7.3670   7.7558   7.7558   8.3413   8.3413   8.4303   8.4303
     8.8839   8.8839   9.1076   9.1076   9.4692   9.4692   9.7412   9.7412
    10.1471  10.1471  10.2692  10.2692  12.6709  12.6709  13.0077  13.0077
    13.3026  13.3026  13.4140  13.4140  13.7261  13.7261  13.8781  13.8781
    14.7978  14.7978  15.0174  15.0174  17.9315  17.9315  18.1817  18.1817
    19.5373  19.5373  19.7543  19.7543  20.1951  20.1951  20.4892  20.4892
    20.7133  20.7133  20.8940  20.8940  21.7597  21.7597  21.9774  21.9774
    22.3669  22.3669  22.6213  22.6213  22.9940  22.9940  23.0949  23.0949
    24.0500  24.0500  24.6506  24.6506

     occupation numbers 
     1.0000   1.0000   1.0000   1.0000   1.0000   1.0000   1.0000   1.0000
     1.0000   1.0000   1.0000   1.0000   1.0000   1.0000   1.0000   1.0000
     1.0000   1.0000   1.0000   1.0000   1.0000   1.0000   1.0000   1.0000
     1.0000   1.0000   1.0000   1.0000   1.0000   1.0000   1.0000   1.0000
     1.0000   1.0000   1.0000   1.0000   1.0000   1.0000   1.0000   1.0000
     1.0000   1.0000   1.0000   1.0000   1.0000   1.0000   1.0000   1.0000
     1.0000   1.0000   1.0000   1.0000   0.0000   0.0000   0.0000   0.0000
     0.0000   0.0000   0.0000   0.0000   0.0000   0.0000   0.0000   0.0000
     0.0000   0.0000   0.0000   0.0000   0.0000   0.0000   0.0000   0.0000
     0.0000   0.0000   0.0000   0.0000   0.0000   0.0000   0.0000   0.0000
     0.0000   0.0000   0.0000   0.0000   0.0000   0.0000   0.0000   0.0000
     0.0000   0.0000   0.0000   0.0000   0.0000   0.0000   0.0000   0.0000
     0.0000   0.0000   0.0000   0.0000

          k =-0.0833 0.3368-0.0844 (  4860 PWs)   bands (ev):

   -62.9011 -62.9011 -62.9010 -62.9010 -34.3317 -34.3317 -34.3301 -34.3301
   -24.6315 -24.6315 -24.6293 -24.6293 -24.5455 -24.5455 -24.5415 -24.5415
    -2.9053  -2.9053  -2.7987  -2.7987  -2.2029  -2.2029  -2.0674  -2.0674
     5.4003   5.4003   5.7013   5.7013   6.1075   6.1075   6.2502   6.2502
     6.8852   6.8852   6.9665   6.9665   7.9014   7.9014   8.0554   8.0554
     8.8544   8.8544   9.1088   9.1088   9.2638   9.2638   9.4102   9.4102
     9.8652   9.8652  10.1222  10.1222  12.5377  12.5377  12.9380  12.9380
    13.2881  13.2881  13.4154  13.4154  13.9609  13.9609  14.2559  14.2559
    15.0757  15.0757  15.3759  15.3759  17.4715  17.4715  17.6806  17.6806
    19.1037  19.1037  19.3577  19.3577  19.4853  19.4853  19.9143  19.9143
    20.6050  20.6050  21.0532  21.0532  21.6499  21.6499  22.0139  22.0139
    22.4943  22.4943  22.6470  22.6470  23.6015  23.6015  23.7351  23.7351
    24.5329  24.5329  24.9566  24.9566

     occupation numbers 
     1.0000   1.0000   1.0000   1.0000   1.0000   1.0000   1.0000   1.0000
     1.0000   1.0000   1.0000   1.0000   1.0000   1.0000   1.0000   1.0000
     1.0000   1.0000   1.0000   1.0000   1.0000   1.0000   1.0000   1.0000
     1.0000   1.0000   1.0000   1.0000   1.0000   1.0000   1.0000   1.0000
     1.0000   1.0000   1.0000   1.0000   1.0000   1.0000   1.0000   1.0000
     1.0000   1.0000   1.0000   1.0000   1.0000   1.0000   1.0000   1.0000
     1.0000   1.0000   1.0000   1.0000   0.0000   0.0000   0.0000   0.0000
     0.0000   0.0000   0.0000   0.0000   0.0000   0.0000   0.0000   0.0000
     0.0000   0.0000   0.0000   0.0000   0.0000   0.0000   0.0000   0.0000
     0.0000   0.0000   0.0000   0.0000   0.0000   0.0000   0.0000   0.0000
     0.0000   0.0000   0.0000   0.0000   0.0000   0.0000   0.0000   0.0000
     0.0000   0.0000   0.0000   0.0000   0.0000   0.0000   0.0000   0.0000
     0.0000   0.0000   0.0000   0.0000

          k =-0.0833 0.4330-0.0844 (  4877 PWs)   bands (ev):

   -62.8987 -62.8987 -62.8987 -62.8987 -34.3419 -34.3419 -34.3396 -34.3396
   -24.6709 -24.6709 -24.6649 -24.6649 -24.5536 -24.5536 -24.5513 -24.5513
    -2.3954  -2.3954  -2.3038  -2.3038  -1.9425  -1.9425  -1.8492  -1.8492
     4.9551   4.9551   5.0968   5.0968   5.9191   5.9191   5.9650   5.9650
     6.4628   6.4628   6.7688   6.7688   7.7324   7.7324   7.8512   7.8512
     8.6930   8.6930   8.8033   8.8033   9.1191   9.1191   9.2121   9.2121
     9.9540   9.9540  10.2556  10.2556  12.7819  12.7819  13.1063  13.1063
    13.4923  13.4923  13.5563  13.5563  14.2686  14.2686  14.6770  14.6770
    15.0780  15.0780  15.4619  15.4619  16.4328  16.4328  16.9548  16.9548
    18.2589  18.2589  18.6937  18.6937  19.1360  19.1360  19.6770  19.6770
    20.0633  20.0633  20.5366  20.5366  21.0780  21.0780  21.5096  21.5096
    22.8905  22.8905  23.1423  23.1423  23.6705  23.6705  24.1938  24.1938
    25.2986  25.2986  25.7135  25.7135

     occupation numbers 
     1.0000   1.0000   1.0000   1.0000   1.0000   1.0000   1.0000   1.0000
     1.0000   1.0000   1.0000   1.0000   1.0000   1.0000   1.0000   1.0000
     1.0000   1.0000   1.0000   1.0000   1.0000   1.0000   1.0000   1.0000
     1.0000   1.0000   1.0000   1.0000   1.0000   1.0000   1.0000   1.0000
     1.0000   1.0000   1.0000   1.0000   1.0000   1.0000   1.0000   1.0000
     1.0000   1.0000   1.0000   1.0000   1.0000   1.0000   1.0000   1.0000
     1.0000   1.0000   1.0000   1.0000   0.0000   0.0000   0.0000   0.0000
     0.0000   0.0000   0.0000   0.0000   0.0000   0.0000   0.0000   0.0000
     0.0000   0.0000   0.0000   0.0000   0.0000   0.0000   0.0000   0.0000
     0.0000   0.0000   0.0000   0.0000   0.0000   0.0000   0.0000   0.0000
     0.0000   0.0000   0.0000   0.0000   0.0000   0.0000   0.0000   0.0000
     0.0000   0.0000   0.0000   0.0000   0.0000   0.0000   0.0000   0.0000
     0.0000   0.0000   0.0000   0.0000

          k =-0.0833 0.5292-0.0844 (  4874 PWs)   bands (ev):

   -62.8973 -62.8973 -62.8973 -62.8973 -34.3476 -34.3476 -34.3449 -34.3449
   -24.6951 -24.6951 -24.6871 -24.6871 -24.5561 -24.5561 -24.5547 -24.5547
    -2.0478  -2.0478  -1.9711  -1.9711  -1.7749  -1.7749  -1.7209  -1.7209
     4.4965   4.4965   4.6402   4.6402   5.5905   5.5905   5.6413   5.6413
     6.4756   6.4756   6.8039   6.8039   7.6998   7.6998   7.7556   7.7556
     8.5594   8.5594   8.6591   8.6591   9.0726   9.0726   9.2683   9.2683
    10.0774  10.0774  10.4335  10.4335  13.1628  13.1628  13.2838  13.2838
    13.5973  13.5973  13.8732  13.8732  14.5370  14.5370  14.8171  14.8171
    15.0222  15.0222  15.2262  15.2262  15.7269  15.7269  16.0923  16.0923
    18.0376  18.0376  18.5968  18.5968  18.9581  18.9581  19.1880  19.1880
    19.7439  19.7439  20.2118  20.2118  20.6893  20.6893  21.0991  21.0991
    22.6324  22.6324  22.8617  22.8617  23.6823  23.6823  24.3862  24.3862
    25.7328  25.7328  26.2425  26.2425

     occupation numbers 
     1.0000   1.0000   1.0000   1.0000   1.0000   1.0000   1.0000   1.0000
     1.0000   1.0000   1.0000   1.0000   1.0000   1.0000   1.0000   1.0000
     1.0000   1.0000   1.0000   1.0000   1.0000   1.0000   1.0000   1.0000
     1.0000   1.0000   1.0000   1.0000   1.0000   1.0000   1.0000   1.0000
     1.0000   1.0000   1.0000   1.0000   1.0000   1.0000   1.0000   1.0000
     1.0000   1.0000   1.0000   1.0000   1.0000   1.0000   1.0000   1.0000
     1.0000   1.0000   1.0000   1.0000   0.0000   0.0000   0.0000   0.0000
     0.0000   0.0000   0.0000   0.0000   0.0000   0.0000   0.0000   0.0000
     0.0000   0.0000   0.0000   0.0000   0.0000   0.0000   0.0000   0.0000
     0.0000   0.0000   0.0000   0.0000   0.0000   0.0000   0.0000   0.0000
     0.0000   0.0000   0.0000   0.0000   0.0000   0.0000   0.0000   0.0000
     0.0000   0.0000   0.0000   0.0000   0.0000   0.0000   0.0000   0.0000
     0.0000   0.0000   0.0000   0.0000

          k =-0.1667 0.3849-0.0844 (  4882 PWs)   bands (ev):

   -62.8991 -62.8991 -62.8991 -62.8991 -34.3410 -34.3410 -34.3374 -34.3374
   -24.6558 -24.6558 -24.6464 -24.6464 -24.5645 -24.5645 -24.5610 -24.5610
    -2.4970  -2.4970  -2.3881  -2.3881  -1.9842  -1.9842  -1.8801  -1.8801
     5.3650   5.3650   5.4856   5.4856   6.1248   6.1248   6.1942   6.1942
     6.4998   6.4998   6.6669   6.6669   7.3829   7.3829   7.6649   7.6649
     8.2318   8.2318   8.4892   8.4892   9.1257   9.1257   9.2666   9.2666
    10.0186  10.0186  10.3370  10.3370  12.4389  12.4389  12.9201  12.9201
    13.5311  13.5311  13.5909  13.5909  13.9010  13.9010  14.2216  14.2216
    15.2418  15.2418  15.6930  15.6930  17.2838  17.2838  17.8265  17.8265
    18.8767  18.8767  19.3789  19.3789  19.8364  19.8364  20.1342  20.1342
    20.2878  20.2878  20.5368  20.5368  21.2232  21.2232  21.5621  21.5621
    22.4954  22.4954  22.7647  22.7647  23.3017  23.3017  23.4004  23.4004
    24.4853  24.4853  24.6969  24.6969

     occupation numbers 
     1.0000   1.0000   1.0000   1.0000   1.0000   1.0000   1.0000   1.0000
     1.0000   1.0000   1.0000   1.0000   1.0000   1.0000   1.0000   1.0000
     1.0000   1.0000   1.0000   1.0000   1.0000   1.0000   1.0000   1.0000
     1.0000   1.0000   1.0000   1.0000   1.0000   1.0000   1.0000   1.0000
     1.0000   1.0000   1.0000   1.0000   1.0000   1.0000   1.0000   1.0000
     1.0000   1.0000   1.0000   1.0000   1.0000   1.0000   1.0000   1.0000
     1.0000   1.0000   1.0000   1.0000   0.0000   0.0000   0.0000   0.0000
     0.0000   0.0000   0.0000   0.0000   0.0000   0.0000   0.0000   0.0000
     0.0000   0.0000   0.0000   0.0000   0.0000   0.0000   0.0000   0.0000
     0.0000   0.0000   0.0000   0.0000   0.0000   0.0000   0.0000   0.0000
     0.0000   0.0000   0.0000   0.0000   0.0000   0.0000   0.0000   0.0000
     0.0000   0.0000   0.0000   0.0000   0.0000   0.0000   0.0000   0.0000
     0.0000   0.0000   0.0000   0.0000

          k =-0.1667 0.4811-0.0844 (  4887 PWs)   bands (ev):

   -62.8974 -62.8974 -62.8973 -62.8973 -34.3486 -34.3486 -34.3440 -34.3440
   -24.6844 -24.6844 -24.6688 -24.6688 -24.5713 -24.5713 -24.5706 -24.5706
    -2.0870  -2.0870  -1.9778  -1.9778  -1.7728  -1.7728  -1.7103  -1.7103
     4.9133   4.9133   5.0382   5.0382   5.7069   5.7069   5.7659   5.7659
     6.5066   6.5066   6.7602   6.7602   7.4170   7.4170   7.5996   7.5996
     8.0341   8.0341   8.2612   8.2612   8.7403   8.7403   8.9204   8.9204
    10.1720  10.1720  10.5280  10.5280  12.8654  12.8654  13.1487  13.1487
    13.6264  13.6264  13.7484  13.7484  14.1328  14.1328  14.4689  14.4689
    15.1600  15.1600  15.6146  15.6146  16.4724  16.4724  16.9702  16.9702
    18.4196  18.4196  18.8917  18.8917  19.6100  19.6100  19.9017  19.9017
    20.2237  20.2237  20.4347  20.4347  20.9023  20.9023  21.3476  21.3476
    22.7165  22.7165  23.0750  23.0750  23.5729  23.5729  23.7571  23.7571
    24.8562  24.8562  25.4156  25.4156

     occupation numbers 
     1.0000   1.0000   1.0000   1.0000   1.0000   1.0000   1.0000   1.0000
     1.0000   1.0000   1.0000   1.0000   1.0000   1.0000   1.0000   1.0000
     1.0000   1.0000   1.0000   1.0000   1.0000   1.0000   1.0000   1.0000
     1.0000   1.0000   1.0000   1.0000   1.0000   1.0000   1.0000   1.0000
     1.0000   1.0000   1.0000   1.0000   1.0000   1.0000   1.0000   1.0000
     1.0000   1.0000   1.0000   1.0000   1.0000   1.0000   1.0000   1.0000
     1.0000   1.0000   1.0000   1.0000   0.0000   0.0000   0.0000   0.0000
     0.0000   0.0000   0.0000   0.0000   0.0000   0.0000   0.0000   0.0000
     0.0000   0.0000   0.0000   0.0000   0.0000   0.0000   0.0000   0.0000
     0.0000   0.0000   0.0000   0.0000   0.0000   0.0000   0.0000   0.0000
     0.0000   0.0000   0.0000   0.0000   0.0000   0.0000   0.0000   0.0000
     0.0000   0.0000   0.0000   0.0000   0.0000   0.0000   0.0000   0.0000
     0.0000   0.0000   0.0000   0.0000

          k =-0.2500 0.5292-0.0844 (  4877 PWs)   bands (ev):

   -62.8963 -62.8963 -62.8963 -62.8963 -34.3533 -34.3533 -34.3471 -34.3471
   -24.6895 -24.6895 -24.6612 -24.6612 -24.5947 -24.5947 -24.5886 -24.5886
    -1.8518  -1.8518  -1.7157  -1.7157  -1.6377  -1.6377  -1.6066  -1.6066
     5.1359   5.1359   5.2625   5.2625   5.4398   5.4398   5.5454   5.5454
     6.5918   6.5918   6.7019   6.7019   7.0120   7.0120   7.1501   7.1501
     7.5696   7.5696   7.7509   7.7509   8.5076   8.5076   8.6907   8.6907
    10.4416  10.4416  10.8471  10.8471  12.7331  12.7331  12.8572  12.8572
    13.5082  13.5082  13.8267  13.8267  14.1994  14.1994  14.4505  14.4505
    15.4495  15.4495  15.8324  15.8324  16.7434  16.7434  17.0924  17.0924
    17.6674  17.6674  18.5614  18.5614  19.4580  19.4580  19.9327  19.9327
    21.3767  21.3767  21.6543  21.6543  21.9550  21.9550  22.3401  22.3401
    22.5364  22.5364  22.6936  22.6936  23.3354  23.3354  23.7084  23.7084
    24.3742  24.3742  24.6257  24.6257

     occupation numbers 
     1.0000   1.0000   1.0000   1.0000   1.0000   1.0000   1.0000   1.0000
     1.0000   1.0000   1.0000   1.0000   1.0000   1.0000   1.0000   1.0000
     1.0000   1.0000   1.0000   1.0000   1.0000   1.0000   1.0000   1.0000
     1.0000   1.0000   1.0000   1.0000   1.0000   1.0000   1.0000   1.0000
     1.0000   1.0000   1.0000   1.0000   1.0000   1.0000   1.0000   1.0000
     1.0000   1.0000   1.0000   1.0000   1.0000   1.0000   1.0000   1.0000
     1.0000   1.0000   1.0000   1.0000   0.0000   0.0000   0.0000   0.0000
     0.0000   0.0000   0.0000   0.0000   0.0000   0.0000   0.0000   0.0000
     0.0000   0.0000   0.0000   0.0000   0.0000   0.0000   0.0000   0.0000
     0.0000   0.0000   0.0000   0.0000   0.0000   0.0000   0.0000   0.0000
     0.0000   0.0000   0.0000   0.0000   0.0000   0.0000   0.0000   0.0000
     0.0000   0.0000   0.0000   0.0000   0.0000   0.0000   0.0000   0.0000
     0.0000   0.0000   0.0000   0.0000

     highest occupied, lowest unoccupied level (ev):    11.2553   12.1585

     Writing all to output data dir /mnt/dalessandro-jobid_15852/kpoints_12x12x3-nbnds_100.save/

     init_run     :      0.22s CPU      0.24s WALL (       1 calls)
     electrons    :    122.69s CPU     69.57s WALL (       1 calls)

     Called by init_run:
     wfcinit      :      0.00s CPU      0.00s WALL (       1 calls)
     wfcinit:atom :      0.03s CPU      0.01s WALL (      50 calls)
     wfcinit:wfcr :      4.68s CPU      2.59s WALL (      50 calls)
     potinit      :      0.01s CPU      0.01s WALL (       1 calls)
     hinit0       :      0.19s CPU      0.22s WALL (       1 calls)

     Called by electrons:
     c_bands      :    122.68s CPU     69.56s WALL (       1 calls)
     v_of_rho     :      0.01s CPU      0.00s WALL (       1 calls)
     v_h          :      0.00s CPU      0.00s WALL (       1 calls)
     v_xc         :      0.01s CPU      0.00s WALL (       1 calls)

     Called by c_bands:
     init_us_2    :      0.05s CPU      0.03s WALL (      50 calls)
     init_us_2:cp :      0.05s CPU      0.03s WALL (      50 calls)
     cegterg      :    116.34s CPU     65.84s WALL (     100 calls)

     Called by sum_band:

     Called by *egterg:
     cdiaghg      :     27.25s CPU     17.90s WALL (    1752 calls)
     cegterg:over :      7.08s CPU      3.56s WALL (    1702 calls)
     cegterg:upda :      3.31s CPU      1.67s WALL (    1702 calls)
     cegterg:last :      6.42s CPU      3.22s WALL (     893 calls)
     h_psi        :     73.24s CPU     40.19s WALL (    1852 calls)
     g_psi        :      0.45s CPU      0.23s WALL (    1702 calls)

     Called by h_psi:
     h_psi:calbec :      5.63s CPU      2.84s WALL (    1852 calls)
     vloc_psi     :     54.83s CPU     28.40s WALL (    1852 calls)
     add_vuspsi   :     12.40s CPU      8.76s WALL (    1852 calls)

     General routines
     calbec       :      5.61s CPU      2.84s WALL (    1852 calls)
     fft          :      0.03s CPU      0.08s WALL (      14 calls)
     fftw         :     45.67s CPU     23.64s WALL (  364496 calls)
     davcio       :      0.06s CPU      0.05s WALL (     100 calls)

     Parallel routines

     PWSCF        :   2m 4.14s CPU   1m11.67s WALL


   This run was terminated on:  12:39:47  12Jan2023            

=------------------------------------------------------------------------------=
   JOB DONE.
=------------------------------------------------------------------------------=
